    2    2    2
    5    3
Sr        Ti        O         
    0.00000000E+00    0.00000000E+00   -0.55947841E-02    0.27479860E-03    0.79132403E-02    0.00000000E+00
    0    0    0    1    1   -0.14106686E+00    0.34665767E-01    0.58935825E-01
    0    0    0    2    2    0.35487629E-02    0.45716344E-01    0.34052229E-01
    0    0    0    3    3    0.30113367E+00    0.16295093E+00    0.27078922E-01
    0    0    0    4    3   -0.83648040E-01    0.42109625E-01   -0.26753038E+00
    0    0    0    5    3    0.11603396E-01    0.32753047E-01   -0.22326296E+00
    0    0    1    1    1    0.65140206E-01   -0.35644458E-01   -0.70498040E-01
    0    0    1    2    2    0.15694647E-01   -0.88765005E-01    0.78846459E-01
    0    0    1    3    3   -0.33617010E+00   -0.22938199E+00    0.36167963E-01
    0    0    1    4    3    0.14538063E+00   -0.22783782E-01    0.28305871E+00
    0    0    1    5    3   -0.29845367E-01   -0.12073009E+00    0.32214157E+00
    0    1    0    1    1   -0.33718190E-02    0.41994458E-01   -0.28840743E-01
    0    1    0    2    2   -0.15382269E-01    0.58969280E-01    0.59773871E-03
    0    1    0    3    3   -0.33838858E+00   -0.23959372E+00   -0.81677258E-02
    0    1    0    4    3   -0.21138275E-02   -0.99912919E-02    0.19288793E+00
    0    1    0    5    3   -0.33151157E-02    0.18864391E-01    0.32881563E+00
    0    1    1    1    1   -0.60411424E-01   -0.35697748E-01   -0.32945835E-01
    0    1    1    2    2    0.35186611E-01   -0.28836494E-02   -0.63119029E-01
    0    1    1    3    3    0.36513257E+00    0.37737216E+00   -0.50322963E-01
    0    1    1    4    3   -0.39459277E-01    0.12754662E-01   -0.32031869E+00
    0    1    1    5    3    0.86047622E-02    0.34673721E-01   -0.43264549E+00
    1    0    0    1    1    0.31172964E-01    0.42867113E-01    0.92552676E-02
    1    0    0    2    2    0.35223023E-01   -0.32634702E-01    0.26762367E-01
    1    0    0    3    3   -0.28109712E+00   -0.39154264E+00    0.43809922E-01
    1    0    0    4    3    0.65775442E-01   -0.35236940E-01    0.35946683E+00
    1    0    0    5    3    0.23209820E-01   -0.12269020E-01    0.32245307E+00
    1    0    1    1    1    0.48431956E-02   -0.36539637E-01   -0.88188016E-02
    1    0    1    2    2   -0.42400877E-01   -0.20531979E-01    0.37814878E-01
    1    0    1    3    3    0.31495708E+00    0.33387175E+00    0.32068725E-01
    1    0    1    4    3   -0.11971495E+00   -0.22989916E-01   -0.23850149E+00
    1    0    1    5    3   -0.39689342E-02    0.22971257E+00   -0.31530362E+00
    1    1    0    1    1    0.16760987E-01   -0.29785549E-03    0.89717937E-01
    1    1    0    2    2    0.98171099E-02   -0.17008603E-01   -0.14960325E-01
    1    1    0    3    3    0.36573202E+00    0.22779699E+00    0.46326440E-02
    1    1    0    4    3   -0.13818707E-01   -0.39680645E-01   -0.39890256E+00
    1    1    0    5    3   -0.37265519E-01    0.33398981E-01   -0.32958643E+00
    1    1    1    1    1   -0.32207009E-01   -0.21670897E-01    0.39336685E-01
    1    1    1    2    2   -0.49456277E-01    0.12055695E-01   -0.34217735E-01
    1    1    1    3    3   -0.27761094E+00   -0.32099615E+00   -0.43492229E-01
    1    1    1    4    3    0.65475151E-01    0.42098568E-02    0.25642212E+00
    1    1    1    5    3    0.26320963E-01   -0.98666063E-02    0.29711164E+00
