    2    2    2
    5    3
Sr        Ti        O         
    0.00000000E+00    0.00000000E+00   -0.35966875E-02    0.23430245E-02   -0.41364968E-02    0.00000000E+00
    0    0    0    1    1    0.54521931E-01    0.35927004E-01   -0.38284244E-01
    0    0    0    2    2   -0.24247025E-01   -0.41972441E-01   -0.51972061E-01
    0    0    0    3    3    0.39866569E+00    0.13351952E+00   -0.39578736E-01
    0    0    0    4    3    0.89162938E-01   -0.13821813E-01   -0.26108776E+00
    0    0    0    5    3   -0.30025894E-01   -0.61365835E-01   -0.31075740E+00
    0    0    1    1    1   -0.17281187E-01   -0.36638344E-01    0.61813621E-02
    0    0    1    2    2    0.45165860E-01    0.26292566E-01    0.57723956E-03
    0    0    1    3    3   -0.31795344E+00   -0.25504403E+00   -0.32039499E-01
    0    0    1    4    3   -0.12626552E+00    0.70782476E-03    0.26821620E+00
    0    0    1    5    3   -0.19682680E-01    0.98894634E-01    0.32394153E+00
    0    1    0    1    1    0.40959308E-01   -0.45887287E-02   -0.77033740E-01
    0    1    0    2    2    0.93167392E-03   -0.36083481E-01   -0.13871167E-01
    0    1    0    3    3   -0.34772145E+00   -0.27613939E+00   -0.28561587E-01
    0    1    0    4    3   -0.75964293E-01   -0.66785066E-02    0.23752322E+00
    0    1    0    5    3    0.59205557E-03    0.11687352E+00    0.37598587E+00
    0    1    1    1    1    0.87549594E-01    0.55617756E-02    0.10163539E-01
    0    1    1    2    2   -0.12497743E-01    0.67084835E-01   -0.19759554E-01
    0    1    1    3    3    0.28274827E+00    0.22212836E+00    0.11039978E-01
    0    1    1    4    3    0.21375793E-01    0.41680714E-02   -0.34078022E+00
    0    1    1    5    3   -0.81433924E-01   -0.16078492E+00   -0.43286127E+00
    1    0    0    1    1    0.41012259E-01    0.53769399E-01   -0.68464622E-02
    1    0    0    2    2    0.22345379E-01    0.40635687E-01    0.79950161E-01
    1    0    0    3    3   -0.23735598E+00   -0.28615027E+00    0.24250216E-02
    1    0    0    4    3   -0.11121827E+00   -0.93526892E-02    0.25879820E+00
    1    0    0    5    3   -0.39539640E-01    0.12330626E+00    0.33819256E+00
    1    0    1    1    1   -0.30604211E-01   -0.12588350E-01    0.68896612E-01
    1    0    1    2    2    0.54214210E-01    0.32411522E-01    0.35783849E-01
    1    0    1    3    3    0.22488883E+00    0.24223562E+00   -0.79047129E-02
    1    0    1    4    3    0.14771702E+00   -0.47835448E-02   -0.31878333E+00
    1    0    1    5    3   -0.18988948E-01   -0.90867989E-01   -0.33324838E+00
    1    1    0    1    1    0.68179165E-01    0.67424408E-01    0.10179999E+00
    1    1    0    2    2   -0.33168574E-01    0.49647192E-01   -0.79572326E-02
    1    1    0    3    3    0.31261705E+00    0.24023552E+00   -0.81779121E-02
    1    1    0    4    3    0.31604463E-01   -0.43768351E-02   -0.23430387E+00
    1    1    0    5    3    0.23974869E-01   -0.23360427E-01   -0.32714612E+00
    1    1    1    1    1   -0.27263731E-01   -0.24461179E-01    0.98613160E-01
    1    1    1    2    2    0.13182067E-01    0.13064031E-01   -0.40333327E-02
    1    1    1    3    3   -0.31429188E+00   -0.38192392E+00    0.26971692E-01
    1    1    1    4    3   -0.96766724E-01   -0.21462039E-01    0.30731340E+00
    1    1    1    5    3    0.86267881E-03    0.17855699E+00    0.34261502E+00
