2	2	2
5	3
Sr	Ti	O
0.00000000E+00	0.00000000E+00	0.00000000E+00	0.00000000E+00	0.00000000E+00	0.00000000E+00
0	0	0	1	1	9.93525722E-03	2.48195477E-02	7.04785818E-03
0	0	0	2	2	1.05148586E-02	-6.62733752E-03	-6.17685999E-03
0	0	0	3	3	2.62272879E-01	2.63472350E-01	7.88230612E-03
0	0	0	4	3	1.18571516E-02	-1.32853808E-02	-2.76401017E-01
0	0	0	5	3	-3.83574783E-03	-2.47451247E-02	-2.75001553E-01
0	0	1	1	1	2.76294556E-03	-3.16999764E-02	9.27500306E-03
0	0	1	2	2	4.68652877E-03	-9.64884280E-03	-7.35974477E-03
0	0	1	3	3	-2.52107786E-01	-2.64213304E-01	3.63667696E-03
0	0	1	4	3	-5.44783706E-02	8.43537777E-03	2.88798481E-01
0	0	1	5	3	-2.81219199E-03	6.00300667E-02	2.78376523E-01
0	1	0	1	1	-2.63160086E-02	2.88603772E-03	-2.89917582E-02
0	1	0	2	2	-1.02560891E-02	-1.64032282E-02	2.50972676E-02
0	1	0	3	3	-3.29710580E-01	-2.72511048E-01	8.29838548E-03
0	1	0	4	3	-1.89321694E-02	-9.84863584E-03	2.97084631E-01
0	1	0	5	3	-1.71066268E-03	1.54570972E-02	3.30304321E-01
0	1	1	1	1	1.67794064E-02	-2.11677339E-02	-1.83547130E-03
0	1	1	2	2	-1.71015191E-02	-4.05203729E-03	9.63932159E-03
0	1	1	3	3	3.05558578E-01	2.77572891E-01	1.48685058E-02
0	1	1	4	3	3.44978351E-02	-2.14341265E-03	-2.66444229E-01
0	1	1	5	3	3.48366957E-03	-3.22855333E-02	-3.26906748E-01
1	0	0	1	1	4.35850170E-03	-1.66296967E-03	1.91208859E-02
1	0	0	2	2	9.59203869E-03	-2.58610618E-03	-4.58298136E-03
1	0	0	3	3	-2.18795601E-01	-3.41878314E-01	7.36026130E-03
1	0	0	4	3	-1.70183358E-02	-1.83130921E-03	3.23805853E-01
1	0	0	5	3	-6.73366291E-03	4.50290791E-02	2.54199798E-01
1	0	1	1	1	3.31205967E-03	-1.95749554E-03	2.28804388E-02
1	0	1	2	2	8.12895978E-04	1.05878138E-02	-4.68637283E-03
1	0	1	3	3	2.62190834E-01	3.15893221E-01	-2.15233711E-03
1	0	1	4	3	1.04812543E-02	-1.67904326E-03	-3.35291548E-01
1	0	1	5	3	1.31901113E-02	-2.56357567E-02	-2.77384619E-01
1	1	0	1	1	-8.42766143E-03	-4.35376056E-04	-3.68756387E-03
1	1	0	2	2	3.03300514E-03	-2.46554491E-03	-2.52291065E-02
1	1	0	3	3	3.19076018E-01	3.14583448E-01	-4.37832096E-03
1	1	0	4	3	1.88931799E-02	5.16514487E-03	-3.32781147E-01
1	1	0	5	3	-5.83273217E-04	-3.17631191E-02	-3.47933316E-01
1	1	1	1	1	6.24536508E-03	-2.62228936E-02	-1.55513623E-02
1	1	1	2	2	-7.65083850E-03	2.93162868E-02	-4.87293734E-03
1	1	1	3	3	-2.84104431E-01	-3.02159093E-01	-4.71367857E-03
1	1	1	4	3	-5.47996826E-02	7.36500000E-04	3.40451559E-01
1	1	1	5	3	1.84023891E-03	7.49237607E-02	3.04234590E-01
