    2    2    2
    5    3
Sr        Ti        O         
    0.00000000E+00    0.00000000E+00   -0.49953160E-02    0.26163032E-02   -0.22572719E-02    0.00000000E+00
    0    0    0    1    1   -0.71181794E-01    0.67634100E-01    0.38355297E-01
    0    0    0    2    2    0.16142488E-01   -0.38992404E-01   -0.13992560E-01
    0    0    0    3    3    0.29707554E+00    0.12333454E+00   -0.14918768E-01
    0    0    0    4    3    0.17468201E+00   -0.61940760E-01   -0.16505423E+00
    0    0    0    5    3   -0.49876936E-02   -0.32582179E-01   -0.33047587E+00
    0    0    1    1    1    0.20675731E-01    0.37949571E-01    0.24668817E-01
    0    0    1    2    2    0.46793195E-01   -0.52418649E-01    0.12388499E-01
    0    0    1    3    3   -0.29892790E+00   -0.26808242E+00    0.57903855E-02
    0    0    1    4    3   -0.85336036E-01   -0.13805012E-01    0.30685471E+00
    0    0    1    5    3   -0.24071966E-01    0.56705690E-01    0.25807222E+00
    0    1    0    1    1   -0.10998463E+00    0.10587319E-01   -0.31296545E-01
    0    1    0    2    2   -0.43483067E-01    0.64614892E-01   -0.11843903E-01
    0    1    0    3    3   -0.32374116E+00   -0.23145764E+00    0.63404574E-02
    0    1    0    4    3   -0.10656163E+00   -0.53265514E-01    0.17701364E+00
    0    1    0    5    3   -0.17813640E-01    0.21361170E+00    0.37283815E+00
    0    1    1    1    1    0.84350043E-01   -0.34863073E-01   -0.18480029E-01
    0    1    1    2    2   -0.18669693E-01   -0.63121380E-01   -0.29749739E-01
    0    1    1    3    3    0.28519266E+00    0.17868807E+00    0.12488097E-01
    0    1    1    4    3    0.42299632E-01   -0.47204899E-01   -0.20576458E+00
    0    1    1    5    3   -0.39846929E-01   -0.95474577E-01   -0.33751757E+00
    1    0    0    1    1    0.50384630E-01   -0.90395844E-01   -0.39719915E-01
    1    0    0    2    2   -0.29948712E-01   -0.64474989E-02    0.40687833E-01
    1    0    0    3    3   -0.37047406E+00   -0.22321788E+00    0.19826993E-01
    1    0    0    4    3   -0.33932373E-01    0.22129399E-01    0.22083728E+00
    1    0    0    5    3   -0.23194842E-01    0.13144217E+00    0.32397223E+00
    1    0    1    1    1    0.37405689E-01    0.58965983E-01    0.48513943E-02
    1    0    1    2    2    0.86109316E-02    0.26810290E-01    0.38575772E-01
    1    0    1    3    3    0.21503197E+00    0.20731674E+00   -0.41783097E-01
    1    0    1    4    3    0.91156627E-01    0.60440819E-01   -0.30933570E+00
    1    0    1    5    3    0.22409038E-01    0.31894612E-01   -0.32268021E+00
    1    1    0    1    1   -0.35373227E-01    0.58329634E-01   -0.80551958E-01
    1    1    0    2    2    0.15028355E-01   -0.14244621E-01    0.73814498E-01
    1    1    0    3    3    0.35116941E+00    0.21197404E+00    0.19843247E-01
    1    1    0    4    3    0.14834408E+00    0.19056835E-01   -0.20248321E+00
    1    1    0    5    3    0.82971535E-01   -0.83793378E-01   -0.34010016E+00
    1    1    1    1    1    0.24472662E-01   -0.13611002E-01   -0.39064426E-01
    1    1    1    2    2    0.28534135E-01    0.30317065E-01    0.33720399E-02
    1    1    1    3    3   -0.28995315E+00   -0.21416085E+00    0.47437820E-01
    1    1    1    4    3   -0.12299702E+00   -0.51824648E-02    0.26251027E+00
    1    1    1    5    3    0.77491590E-02    0.32458571E-01    0.26427282E+00
