    2    2    2
    5    3
Sr        Ti        O         
    0.00000000E+00    0.00000000E+00   -0.30720556E-02    0.44323243E-02    0.28614495E-03    0.00000000E+00
    0    0    0    1    1   -0.27179173E-01   -0.24374019E-01    0.94645719E-01
    0    0    0    2    2    0.55978423E-01   -0.72710991E-02   -0.28415370E-01
    0    0    0    3    3    0.22365878E+00    0.23892312E+00   -0.23028860E-01
    0    0    0    4    3    0.60847695E-01    0.54147265E-02   -0.30063747E+00
    0    0    0    5    3   -0.19249363E-01   -0.46304258E-01   -0.69386874E-01
    0    0    1    1    1    0.19287873E-01    0.33281465E-01    0.21869661E-01
    0    0    1    2    2   -0.20330106E-01   -0.80793903E-03   -0.10472649E-01
    0    0    1    3    3   -0.22936942E+00   -0.37848509E+00    0.11806347E-01
    0    0    1    4    3   -0.11672229E+00   -0.55485630E-02    0.22654403E+00
    0    0    1    5    3   -0.82710889E-02    0.99725344E-01    0.30014687E+00
    0    1    0    1    1   -0.60847264E-02   -0.71166302E-01    0.87980217E-02
    0    1    0    2    2    0.11164246E-01    0.28231957E-01   -0.59222589E-01
    0    1    0    3    3   -0.29474876E+00   -0.27321938E+00   -0.60792301E-02
    0    1    0    4    3    0.21345277E-01   -0.22210669E-01    0.22721176E+00
    0    1    0    5    3   -0.39334865E-01    0.37369046E-01    0.29959952E+00
    0    1    1    1    1    0.29143028E-03   -0.20584562E-01    0.89494287E-01
    0    1    1    2    2    0.99474271E-03   -0.88383722E-02   -0.54770483E-01
    0    1    1    3    3    0.23361519E+00    0.17677215E+00   -0.62203413E-01
    0    1    1    4    3    0.86164271E-02   -0.40584233E-01   -0.31571754E+00
    0    1    1    5    3   -0.11782587E-01    0.15707157E-01   -0.34749807E+00
    1    0    0    1    1    0.46136363E-01   -0.25442505E-01   -0.84611877E-01
    1    0    0    2    2   -0.11091273E-02    0.60460553E-01    0.21138054E-01
    1    0    0    3    3   -0.22778789E+00   -0.18820942E+00    0.56954781E-01
    1    0    0    4    3   -0.51768214E-01    0.41462425E-01    0.27421027E+00
    1    0    0    5    3    0.34330779E-01    0.12398019E-01    0.32038298E+00
    1    0    1    1    1    0.66376829E-01   -0.13411235E-01   -0.29349783E-01
    1    0    1    2    2   -0.52630431E-02    0.66640512E-01    0.96975538E-02
    1    0    1    3    3    0.24287008E+00    0.18623542E+00    0.16179537E-01
    1    0    1    4    3    0.97520276E-01    0.27857058E-01   -0.20855546E+00
    1    0    1    5    3    0.37519188E-01   -0.17046058E-01   -0.18203062E+00
    1    1    0    1    1    0.17494845E-01   -0.49523132E-02   -0.75971446E-01
    1    1    0    2    2   -0.13777228E-01    0.69896709E-01    0.31853282E-01
    1    1    0    3    3    0.21610894E+00    0.16183730E+00   -0.19997169E-01
    1    1    0    4    3    0.21510202E-01    0.20431146E-01   -0.20570664E+00
    1    1    0    5    3    0.18569839E-01   -0.56135771E-01   -0.37188493E+00
    1    1    1    1    1    0.32660404E-02   -0.12230453E-01   -0.66972001E-01
    1    1    1    2    2   -0.22397331E-02    0.33170501E-01    0.10438633E-01
    1    1    1    3    3   -0.37510305E+00   -0.18328952E+00    0.87110293E-02
    1    1    1    4    3    0.35751297E-01   -0.73087336E-02    0.26320690E+00
    1    1    1    5    3   -0.23134092E-01    0.91605887E-01    0.22962323E+00
