    2    2    2
    5    3
Sr        Ti        O         
    0.00000000E+00    0.00000000E+00   -0.38055413E-02    0.50562040E-02    0.99509493E-03    0.00000000E+00
    0    0    0    1    1   -0.56483798E-01    0.56338729E-01    0.67618573E-02
    0    0    0    2    2    0.17182809E-01    0.22256163E-01    0.16776477E-01
    0    0    0    3    3    0.32325639E+00    0.25322390E+00    0.30523056E-01
    0    0    0    4    3   -0.28612190E-01   -0.55246526E-01   -0.23502835E+00
    0    0    0    5    3    0.30972782E-01    0.44696191E-02   -0.34933936E+00
    0    0    1    1    1   -0.25379156E-01   -0.30311005E-01   -0.35270691E-01
    0    0    1    2    2   -0.51920402E-01   -0.12049185E-01    0.33443831E-02
    0    0    1    3    3   -0.25396415E+00   -0.31387008E+00   -0.10284340E-01
    0    0    1    4    3   -0.31500801E-01   -0.10165271E-01    0.34324752E+00
    0    0    1    5    3    0.26638474E-01    0.85466897E-01    0.26132999E+00
    0    1    0    1    1   -0.24724150E-01   -0.40268136E-01    0.13641114E-01
    0    1    0    2    2    0.21152904E-01    0.28924340E-01   -0.22369521E-01
    0    1    0    3    3   -0.29498056E+00   -0.26084212E+00    0.43049795E-01
    0    1    0    4    3   -0.17250924E-01   -0.14617126E-02    0.33147507E+00
    0    1    0    5    3    0.46540826E-02    0.13401049E+00    0.25132516E+00
    0    1    1    1    1   -0.51718076E-01   -0.21305523E-02    0.27479042E-01
    0    1    1    2    2    0.10561974E-01   -0.18414142E-01    0.22741719E-01
    0    1    1    3    3    0.36976517E+00    0.28582696E+00    0.62442134E-01
    0    1    1    4    3   -0.13748240E-01    0.24757071E-01   -0.26553763E+00
    0    1    1    5    3   -0.14160928E-01   -0.85386275E-01   -0.36030390E+00
    1    0    0    1    1    0.17456997E-01   -0.17823978E-02    0.30118917E-01
    1    0    0    2    2    0.19431398E-01   -0.38093432E-02    0.43372447E-01
    1    0    0    3    3   -0.31386142E+00   -0.32702112E+00    0.28535345E-01
    1    0    0    4    3   -0.11534046E-01    0.26680948E-01    0.27143182E+00
    1    0    0    5    3    0.68195215E-01    0.97133442E-01    0.28582870E+00
    1    0    1    1    1   -0.38635069E-02   -0.38595039E-01    0.79912877E-02
    1    0    1    2    2   -0.85522755E-01    0.12388250E-01    0.12727115E-01
    1    0    1    3    3    0.34207470E+00    0.16544794E+00    0.13139147E-01
    1    0    1    4    3    0.64296506E-02    0.52978564E-01   -0.30245943E+00
    1    0    1    5    3   -0.75252884E-02   -0.10152104E-01   -0.34526268E+00
    1    1    0    1    1    0.17644906E-01   -0.18767561E-01   -0.15354810E-01
    1    1    0    2    2   -0.71788498E-03    0.25739392E-01   -0.51544441E-01
    1    1    0    3    3    0.21289940E+00    0.25649399E+00   -0.11311209E-01
    1    1    0    4    3    0.15502864E+00    0.14574355E-01   -0.27744490E+00
    1    1    0    5    3    0.65922464E-01    0.22908016E-01   -0.43152217E+00
    1    1    1    1    1   -0.51821291E-01   -0.18927662E-01   -0.22890987E-01
    1    1    1    2    2   -0.69824808E-05   -0.25785576E-01   -0.43007836E-02
    1    1    1    3    3   -0.38190557E+00   -0.25825151E+00   -0.20799233E-01
    1    1    1    4    3    0.72972105E-02    0.15617253E-01    0.26802172E+00
    1    1    1    5    3    0.46369643E-02   -0.51999010E-01    0.38572063E+00
