    2    2    2
    5    3
Sr        Ti        O         
    0.00000000E+00    0.00000000E+00   -0.50170281E-02    0.46231071E-02   -0.15672892E-02    0.00000000E+00
    0    0    0    1    1    0.40725832E-01   -0.75048080E-02   -0.66122699E-01
    0    0    0    2    2    0.26005086E-01    0.19677089E-01    0.33878820E-01
    0    0    0    3    3    0.24073082E+00    0.24352036E+00   -0.19759040E-01
    0    0    0    4    3    0.17616972E+00    0.38646731E-01   -0.26307028E+00
    0    0    0    5    3    0.38016828E-01   -0.11323171E+00   -0.24704357E+00
    0    0    1    1    1    0.75482712E-01    0.43276562E-01    0.98192459E-01
    0    0    1    2    2   -0.17361799E-01   -0.35772976E-01   -0.83994048E-02
    0    0    1    3    3   -0.20635199E+00   -0.31521815E+00   -0.38252026E-01
    0    0    1    4    3    0.40195963E-01   -0.41400802E-01    0.30804793E+00
    0    0    1    5    3   -0.34098964E-02   -0.23787030E-01    0.23554267E+00
    0    1    0    1    1   -0.11128353E+00   -0.39821991E-01   -0.95341967E-01
    0    1    0    2    2    0.13593653E-02    0.13692037E-01   -0.14999954E-01
    0    1    0    3    3   -0.35206041E+00   -0.20777140E+00   -0.24304198E-01
    0    1    0    4    3   -0.71616908E-01    0.59644300E-01    0.33905536E+00
    0    1    0    5    3   -0.96483934E-02    0.15163724E+00    0.25805688E+00
    0    1    1    1    1    0.47343543E-01    0.49089849E-01    0.29886879E-01
    0    1    1    2    2   -0.79441613E-02   -0.71838066E-01   -0.31455484E-01
    0    1    1    3    3    0.28096427E+00    0.17247041E+00   -0.51708677E-01
    0    1    1    4    3   -0.97264402E-02    0.47883902E-02   -0.36122926E+00
    0    1    1    5    3   -0.26394909E-01   -0.54520927E-01   -0.38770725E+00
    1    0    0    1    1   -0.96482368E-01   -0.57200865E-01   -0.80538825E-01
    1    0    0    2    2    0.81875718E-01    0.55467597E-01    0.56184163E-01
    1    0    0    3    3   -0.25317188E+00   -0.28643119E+00    0.90395565E-01
    1    0    0    4    3   -0.15022504E+00    0.13660348E-01    0.30019601E+00
    1    0    0    5    3   -0.32865730E-02    0.19702442E+00    0.35675797E+00
    1    0    1    1    1    0.73661782E-01    0.29957769E-01   -0.68287640E-01
    1    0    1    2    2   -0.35031232E-01    0.23820817E-01    0.18835184E-01
    1    0    1    3    3    0.27211695E+00    0.22777419E+00    0.57307646E-01
    1    0    1    4    3   -0.74697246E-01   -0.28400813E-01   -0.19532189E+00
    1    0    1    5    3   -0.27447536E-01   -0.11054074E-01   -0.23928296E+00
    1    1    0    1    1   -0.10393205E+00   -0.62420406E-02    0.67555476E-01
    1    1    0    2    2   -0.14321943E-01    0.42209171E-01   -0.55453527E-01
    1    1    0    3    3    0.38466359E+00    0.19410295E+00    0.41822639E-01
    1    1    0    4    3    0.16543819E+00    0.47347208E-01   -0.18776556E+00
    1    1    0    5    3    0.34670681E-02   -0.16234811E+00   -0.42683790E+00
    1    1    1    1    1   -0.26587896E-01    0.41187758E-01   -0.11587516E+00
    1    1    1    2    2   -0.22975154E-01    0.33633514E-01   -0.10679054E-01
    1    1    1    3    3   -0.28313424E+00   -0.21598640E+00    0.44574631E-01
    1    1    1    4    3   -0.95996882E-02   -0.42657876E-01    0.35214048E+00
    1    1    1    5    3   -0.31526138E-01    0.18560508E-01    0.30100557E+00
