    2    2    2
    5    3
Sr        Ti        O         
   -0.30000000E-01   -0.30000000E-01    0.13039014E-01   -0.52294121E-02    0.25016006E-02    0.00000000E+00
    0    0    0    1    1   -0.16099344E-01   -0.48304210E-01   -0.56379051E-01
    0    0    0    2    2   -0.13882502E-01    0.25371488E-01   -0.16998308E-01
    0    0    0    3    3   -0.15897339E-01    0.30551338E-01    0.86663455E-03
    0    0    0    4    3    0.58170968E+00   -0.18218057E-02   -0.97275322E-01
    0    0    0    5    3   -0.56523099E-01   -0.63337779E+00   -0.40213213E-01
    0    0    1    1    1   -0.29251880E-01    0.20583585E-01    0.40387495E-01
    0    0    1    2    2    0.16058577E-01   -0.71112472E-03    0.12733140E-01
    0    0    1    3    3   -0.12716698E+00   -0.54430709E-01    0.39883478E-01
    0    0    1    4    3   -0.54795260E+00   -0.29615168E-01    0.11707313E+00
    0    0    1    5    3    0.10922917E-01    0.62842826E+00    0.62523182E-01
    0    1    0    1    1    0.95715390E-01   -0.49869046E-01    0.66374518E-01
    0    1    0    2    2   -0.23456974E-01    0.95692136E-01   -0.26133647E-01
    0    1    0    3    3   -0.86991874E-01   -0.87818159E-01    0.28143914E-01
    0    1    0    4    3   -0.52947480E+00    0.25202164E-01    0.56766774E-01
    0    1    0    5    3   -0.27426422E-01    0.60005857E+00    0.93908741E-01
    0    1    1    1    1   -0.80847049E-02   -0.72085553E-01   -0.84446636E-01
    0    1    1    2    2   -0.17195234E-01    0.15096354E-01    0.83925197E-02
    0    1    1    3    3    0.92522247E-01    0.73038344E-01    0.19344399E-01
    0    1    1    4    3    0.61861990E+00    0.16046730E-01   -0.12850252E-01
    0    1    1    5    3   -0.28285485E-01   -0.57309168E+00   -0.38855962E-01
    1    0    0    1    1    0.78733143E-01   -0.11747025E-01    0.10230654E-02
    1    0    0    2    2   -0.72642304E-01   -0.46119333E-02   -0.17182314E-01
    1    0    0    3    3   -0.20143779E-01   -0.22141328E+00   -0.31654087E-01
    1    0    0    4    3   -0.61172209E+00   -0.22212191E-01    0.17726438E+00
    1    0    0    5    3   -0.24983919E-01    0.57206837E+00    0.74754162E-01
    1    0    1    1    1    0.19244023E-02   -0.31159691E-01   -0.51667304E-01
    1    0    1    2    2    0.19999192E-01    0.38377465E-01    0.12880540E-01
    1    0    1    3    3   -0.78191149E-02    0.21269512E+00   -0.61038330E-01
    1    0    1    4    3    0.57985100E+00    0.35720937E-01   -0.19483815E+00
    1    0    1    5    3   -0.35964547E-01   -0.58746740E+00   -0.23676520E-01
    1    1    0    1    1    0.78496339E-01    0.25380364E-01   -0.87504954E-01
    1    1    0    2    2    0.16521257E-01   -0.81890651E-02    0.38654999E-01
    1    1    0    3    3    0.53228431E-01    0.12874501E+00   -0.47115897E-01
    1    1    0    4    3    0.54146569E+00    0.29524854E-01   -0.94551346E-01
    1    1    0    5    3    0.58919897E-02   -0.54536835E+00   -0.65605782E-02
    1    1    1    1    1    0.46244460E-02    0.13845614E-01    0.80248288E-01
    1    1    1    2    2    0.47803716E-01    0.17110019E-01   -0.24628192E-02
    1    1    1    3    3   -0.49402447E-01   -0.18897858E+00   -0.46565857E-01
    1    1    1    4    3   -0.54564403E+00   -0.48611293E-01    0.14529788E-01
    1    1    1    5    3    0.51923153E-01    0.61734735E+00    0.92217392E-01
