    2    2    2
    5    3
Sr        Ti        O         
   -0.30000000E-01   -0.30000000E-01    0.39718056E-02   -0.11405211E-02    0.14200901E-02    0.00000000E+00
    0    0    0    1    1    0.11752928E+00    0.30803147E-02    0.29646716E-01
    0    0    0    2    2   -0.20498268E-01   -0.19382229E-01    0.21217609E-01
    0    0    0    3    3    0.51052656E-01    0.30084280E+00   -0.32270277E-01
    0    0    0    4    3    0.56289641E+00    0.52004544E-01   -0.15590877E+00
    0    0    0    5    3    0.36671510E-01   -0.56927981E+00   -0.58589846E-01
    0    0    1    1    1   -0.28224733E-01    0.35589475E-01    0.39100492E-02
    0    0    1    2    2    0.15400081E-01   -0.83256087E-03    0.70441430E-02
    0    0    1    3    3   -0.15109626E+00   -0.19714224E+00   -0.40181914E-01
    0    0    1    4    3   -0.61165786E+00    0.30075722E-01    0.25116605E+00
    0    0    1    5    3    0.16882714E-01    0.57276551E+00    0.40385582E-01
    0    1    0    1    1    0.36286061E-01   -0.63196619E-02   -0.19923476E-01
    0    1    0    2    2    0.94032583E-02    0.16303480E-01    0.25167302E-01
    0    1    0    3    3   -0.11203660E+00   -0.14820955E+00    0.17433973E-01
    0    1    0    4    3   -0.58987557E+00    0.16521385E-01    0.87758712E-01
    0    1    0    5    3    0.30358305E-01    0.53310437E+00    0.99848039E-01
    0    1    1    1    1    0.12036450E-01    0.11858209E-01   -0.35755040E-01
    0    1    1    2    2   -0.89927515E-01   -0.24195960E-01    0.64216839E-01
    0    1    1    3    3    0.13384820E+00    0.18599939E+00    0.35071496E-01
    0    1    1    4    3    0.55493108E+00    0.97976631E-02   -0.14740465E+00
    0    1    1    5    3   -0.47508271E-01   -0.58923191E+00   -0.92767780E-01
    1    0    0    1    1    0.80725136E-01   -0.24957031E-01   -0.91984657E-01
    1    0    0    2    2    0.29342157E-01   -0.27139294E-01   -0.35383351E-01
    1    0    0    3    3   -0.64724703E-01   -0.15002125E+00   -0.50701762E-01
    1    0    0    4    3   -0.55669092E+00   -0.19573064E-01    0.45966131E-01
    1    0    0    5    3    0.10144538E-01    0.55632005E+00    0.87881428E-01
    1    0    1    1    1   -0.66497878E-01   -0.65158172E-01    0.42019942E-01
    1    0    1    2    2    0.58065456E-01   -0.29378075E-01   -0.62390914E-03
    1    0    1    3    3    0.97793237E-01    0.22962688E+00   -0.42098585E-01
    1    0    1    4    3    0.50437638E+00    0.24437879E-01   -0.21615583E+00
    1    0    1    5    3    0.33241018E-02   -0.52888841E+00   -0.37594282E-01
    1    1    0    1    1   -0.27565095E-01   -0.13471882E-01    0.11474153E-01
    1    1    0    2    2   -0.13765961E-02   -0.21590461E-01    0.48354960E-01
    1    1    0    3    3    0.96087329E-01    0.22451217E+00    0.66070485E-01
    1    1    0    4    3    0.53781821E+00    0.60457777E-02   -0.16760498E+00
    1    1    0    5    3    0.42891137E-01   -0.59405693E+00   -0.10162091E+00
    1    1    1    1    1   -0.27743097E-01   -0.93101736E-01    0.10662562E+00
    1    1    1    2    2   -0.26676970E-01   -0.45741564E-01    0.47175712E-01
    1    1    1    3    3   -0.53363224E-01   -0.15789245E+00    0.86189836E-02
    1    1    1    4    3   -0.51595812E+00    0.10507229E-01    0.12165966E+00
    1    1    1    5    3   -0.46442028E-01    0.50617139E+00    0.57856434E-01
