    2    2    2
    5    3
Sr        Ti        O         
   -0.30000000E-01   -0.30000000E-01    0.24355599E-01   -0.39540738E-02   -0.11448693E-02    0.00000000E+00
    0    0    0    1    1    0.32870968E-01    0.35442462E-01    0.37168403E-01
    0    0    0    2    2   -0.21536647E-01   -0.51327161E-01   -0.72442842E-02
    0    0    0    3    3    0.72016250E-01   -0.57904734E-01   -0.14509747E-01
    0    0    0    4    3    0.56083926E+00    0.12542371E-01   -0.26442912E-01
    0    0    0    5    3   -0.19583382E-01   -0.59360073E+00    0.45235064E-01
    0    0    1    1    1   -0.32659727E-01   -0.72456518E-02    0.43712371E-01
    0    0    1    2    2    0.48451359E-02   -0.53833291E-03   -0.35099313E-01
    0    0    1    3    3   -0.36639686E-01    0.47722008E-01    0.27362517E-01
    0    0    1    4    3   -0.57084525E+00   -0.25086459E-01    0.59181261E-01
    0    0    1    5    3    0.51252673E-01    0.63915135E+00   -0.39205816E-01
    0    1    0    1    1    0.62481328E-01   -0.62727991E-01    0.61198247E-01
    0    1    0    2    2    0.44789932E-03    0.11662679E-01   -0.53367344E-01
    0    1    0    3    3    0.28212527E-01    0.60682913E-01   -0.52588647E-01
    0    1    0    4    3   -0.68202632E+00   -0.18703975E-01   -0.12574992E+00
    0    1    0    5    3   -0.51377723E-01    0.59534346E+00   -0.69838643E-02
    0    1    1    1    1    0.77799081E-01    0.89737551E-01    0.66840690E-02
    0    1    1    2    2   -0.22304345E-01   -0.48275710E-01    0.57341185E-01
    0    1    1    3    3    0.11883623E+00   -0.94853975E-01    0.13026534E-02
    0    1    1    4    3    0.56959449E+00   -0.15285087E-01    0.15696386E+00
    0    1    1    5    3    0.23101702E-02   -0.58092124E+00   -0.47092006E-01
    1    0    0    1    1   -0.72817878E-02    0.27455436E-01   -0.87855250E-01
    1    0    0    2    2   -0.49761614E-01    0.22466065E-01    0.68939618E-01
    1    0    0    3    3   -0.14107530E-01   -0.17932959E+00   -0.28039189E-01
    1    0    0    4    3   -0.63494105E+00    0.45458482E-01    0.11501554E+00
    1    0    0    5    3   -0.23165906E-01    0.58339888E+00    0.44193076E-01
    1    0    1    1    1   -0.10279101E+00   -0.87678099E-02   -0.88011584E-02
    1    0    1    2    2   -0.10058407E-01    0.35615267E-01    0.47876835E-01
    1    0    1    3    3   -0.55410505E-01    0.52995112E-01    0.19230132E-01
    1    0    1    4    3    0.63642884E+00    0.40726240E-01   -0.27799930E-01
    1    0    1    5    3    0.93389416E-02   -0.62437565E+00   -0.34972254E-01
    1    1    0    1    1    0.10998931E+00   -0.74638108E-01   -0.11891753E+00
    1    1    0    2    2   -0.62937992E-01    0.42342794E-01    0.41843482E-01
    1    1    0    3    3    0.10593472E+00    0.93258918E-01   -0.12560060E-01
    1    1    0    4    3    0.59089609E+00    0.30669006E-01   -0.73514675E-01
    1    1    0    5    3   -0.10165947E-01   -0.64985528E+00   -0.48148821E-01
    1    1    1    1    1    0.16331675E-01    0.54625247E-02   -0.44724551E-01
    1    1    1    2    2   -0.11535465E-01    0.24975065E-01    0.31530737E-01
    1    1    1    3    3    0.96931940E-02   -0.38461320E-01   -0.92992291E-03
    1    1    1    4    3   -0.64772419E+00    0.18291379E-01    0.35117878E-01
    1    1    1    5    3    0.67357062E-02    0.61649885E+00   -0.53497356E-02
