2	2	2
5	3
Sr	Ti	O
-3.00000000E-02	-3.00000000E-02	0.00000000E+00	0.00000000E+00	0.00000000E+00	0.00000000E+00
0	0	0	1	1	1.78053960E-02	-1.21058299E-02	-1.15572356E-02
0	0	0	2	2	-7.67637415E-03	4.81073522E-04	-3.83816778E-04
0	0	0	3	3	1.60740195E-01	1.57129804E-01	1.45456745E-02
0	0	0	4	3	4.89095698E-01	-1.85084340E-03	-1.68263533E-01
0	0	0	5	3	-3.58293289E-03	-5.09920631E-01	-1.82284327E-01
0	0	1	1	1	-1.35819909E-02	-4.37147448E-03	4.53896856E-03
0	0	1	2	2	8.65593384E-03	1.58115889E-04	-6.80657184E-04
0	0	1	3	3	-2.00123477E-01	-1.30779987E-01	-1.07452190E-02
0	0	1	4	3	-4.76448051E-01	-1.37648378E-03	1.62407921E-01
0	0	1	5	3	6.57402499E-03	5.00288441E-01	1.70833714E-01
0	1	0	1	1	-1.57333371E-02	-6.49408956E-03	1.07426321E-02
0	1	0	2	2	8.84473499E-03	7.26905579E-03	9.38383344E-03
0	1	0	3	3	-1.49418358E-01	-1.36266565E-01	1.32025217E-02
0	1	0	4	3	-5.11994039E-01	6.73304026E-03	1.47824924E-01
0	1	0	5	3	-2.68781182E-03	4.78614496E-01	1.49997832E-01
0	1	1	1	1	-1.05589642E-02	3.23051734E-02	1.54130850E-02
0	1	1	2	2	8.85166723E-03	-1.85932689E-02	2.41540307E-02
0	1	1	3	3	1.44202726E-01	1.73584502E-01	1.22396951E-03
0	1	1	4	3	4.84063174E-01	-3.23558129E-03	-1.77147173E-01
0	1	1	5	3	-4.92739144E-04	-4.71314071E-01	-1.28555165E-01
1	0	0	1	1	1.07226058E-02	3.40360270E-03	-1.01901652E-02
1	0	0	2	2	-3.24634016E-03	-1.24783019E-02	-3.08434264E-02
1	0	0	3	3	-1.93445996E-01	-1.76882893E-01	-6.18647240E-03
1	0	0	4	3	-4.80269743E-01	-1.61596109E-02	1.66804648E-01
1	0	0	5	3	8.42608322E-04	4.84157861E-01	1.68562358E-01
1	0	1	1	1	1.55340523E-02	-1.58342484E-03	-1.87413351E-02
1	0	1	2	2	2.30676027E-03	-4.44501723E-03	-3.35249663E-02
1	0	1	3	3	1.88465834E-01	1.64440324E-01	-3.07371740E-03
1	0	1	4	3	4.90495663E-01	-4.92753137E-03	-2.20404653E-01
1	0	1	5	3	-1.18737450E-03	-5.01639162E-01	-1.87915198E-01
1	1	0	1	1	2.55455101E-02	2.22210670E-02	2.14593006E-02
1	1	0	2	2	6.56613943E-03	-9.52713624E-03	2.74713298E-02
1	1	0	3	3	1.37840017E-01	1.85661293E-01	1.59890799E-02
1	1	0	4	3	4.89252552E-01	-1.54152859E-02	-1.72235577E-01
1	1	0	5	3	1.69615007E-03	-4.81834801E-01	-1.19793542E-01
1	1	1	1	1	-1.02306861E-02	-1.08516527E-02	-3.31114382E-02
1	1	1	2	2	7.93657402E-03	4.95154909E-03	2.84306214E-02
1	1	1	3	3	-1.52524641E-01	-1.89364449E-01	1.29557814E-02
1	1	1	4	3	-4.83964296E-01	6.88531617E-03	1.64995760E-01
1	1	1	5	3	1.11291362E-02	4.93133377E-01	1.84699637E-01
