    2    2    2
    5    3
Sr        Ti        O         
   -0.30000000E-01   -0.30000000E-01    0.19154932E-01    0.22108472E-02   -0.11507144E-02    0.00000000E+00
    0    0    0    1    1   -0.47094418E-01   -0.16930942E-01   -0.38228048E-01
    0    0    0    2    2   -0.18833908E-02   -0.19679174E-02   -0.44462460E-02
    0    0    0    3    3    0.17167792E+00    0.44142485E-01    0.16593900E-01
    0    0    0    4    3    0.62071779E+00    0.14895150E-01   -0.46602139E-01
    0    0    0    5    3    0.16848935E-01   -0.62904215E+00    0.31043333E-01
    0    0    1    1    1   -0.45030161E-01    0.32139687E-01    0.51324741E-02
    0    0    1    2    2    0.67042759E-01    0.25888628E-01   -0.25560122E-01
    0    0    1    3    3    0.65897216E-01   -0.10274054E+00    0.42274849E-01
    0    0    1    4    3   -0.61312414E+00   -0.10524202E-02    0.31282721E-02
    0    0    1    5    3    0.77169988E-01    0.60436814E+00    0.28862003E-01
    0    1    0    1    1    0.30425618E-01   -0.85700690E-01    0.13096867E-01
    0    1    0    2    2   -0.16011923E-01    0.17276455E-01    0.22426428E-01
    0    1    0    3    3    0.22220252E-02   -0.56582465E-01    0.13863891E-02
    0    1    0    4    3   -0.68726922E+00   -0.29097147E-01    0.44174345E-01
    0    1    0    5    3   -0.30134845E-01    0.75869790E+00   -0.76266892E-01
    0    1    1    1    1    0.12408627E-01    0.70755159E-04    0.13281931E+00
    0    1    1    2    2   -0.36027825E-01    0.33653437E-01    0.43214801E-01
    0    1    1    3    3   -0.50172704E-01    0.18863753E-02    0.60156655E-02
    0    1    1    4    3    0.58186542E+00    0.20698657E-01    0.20278995E-01
    0    1    1    5    3   -0.59370701E-01   -0.58993833E+00    0.18867308E-01
    1    0    0    1    1   -0.65686322E-01    0.93996864E-01   -0.31850322E-01
    1    0    0    2    2    0.33553685E-02   -0.48248235E-01    0.91447286E-01
    1    0    0    3    3    0.36137756E-01   -0.55992198E-01    0.23822597E-01
    1    0    0    4    3   -0.68929727E+00    0.24286347E-01    0.29696991E-01
    1    0    0    5    3    0.11375489E-01    0.62915101E+00    0.10544592E+00
    1    0    1    1    1   -0.43116049E-01    0.13367168E-01   -0.13391892E+00
    1    0    1    2    2    0.43203468E-01   -0.29252053E-01   -0.11228997E-01
    1    0    1    3    3    0.17303965E+00    0.30467903E-01    0.50855217E-01
    1    0    1    4    3    0.57347967E+00   -0.20641445E-01   -0.86339340E-01
    1    0    1    5    3    0.52209247E-01   -0.67616805E+00   -0.11762255E+00
    1    1    0    1    1    0.11668090E+00    0.11261897E-01   -0.48747505E-02
    1    1    0    2    2   -0.79872934E-02    0.12076113E-01   -0.47433549E-02
    1    1    0    3    3   -0.45815441E-01    0.93708965E-01    0.16730391E-01
    1    1    0    4    3    0.58782156E+00   -0.20282334E-02   -0.49721980E-01
    1    1    0    5    3   -0.43677615E-01   -0.59776866E+00   -0.45069173E-01
    1    1    1    1    1   -0.25787367E-01   -0.63369731E-01   -0.44206879E-01
    1    1    1    2    2   -0.39397818E-01    0.21824954E-01   -0.33899660E-01
    1    1    1    3    3   -0.31809681E-01   -0.11589805E+00   -0.14883923E-03
    1    1    1    4    3   -0.62962491E+00   -0.44680263E-01    0.58017856E-01
    1    1    1    5    3   -0.35260312E-01    0.68324062E+00   -0.50602978E-01
