    2    2    2
    5    3
Sr        Ti        O         
   -0.30000000E-01   -0.30000000E-01    0.24643708E-01   -0.68324681E-02   -0.12961744E-03    0.00000000E+00
    0    0    0    1    1   -0.12418019E+00   -0.10051959E-01    0.17640643E-02
    0    0    0    2    2   -0.33740757E-01    0.21521402E-01   -0.39202772E-01
    0    0    0    3    3    0.77907166E-02   -0.20555422E-01   -0.23927375E-01
    0    0    0    4    3    0.61891538E+00    0.37347579E-01   -0.85004647E-01
    0    0    0    5    3   -0.32192999E-01   -0.53671943E+00   -0.15556364E-01
    0    0    1    1    1    0.85854089E-01   -0.32720218E-01    0.39074131E-02
    0    0    1    2    2    0.21749974E-01   -0.12378623E-01    0.31731590E-01
    0    0    1    3    3   -0.46597676E-01   -0.51465463E-02    0.26881626E-01
    0    0    1    4    3   -0.60627266E+00   -0.25044661E-01   -0.87788765E-02
    0    0    1    5    3    0.59320630E-02    0.62419179E+00    0.14125609E-01
    0    1    0    1    1   -0.38277228E-01   -0.75725413E-01   -0.28994504E-03
    0    1    0    2    2   -0.19010309E-01    0.79162067E-02   -0.25860785E-01
    0    1    0    3    3    0.33119832E-02   -0.12512096E-01    0.54055550E-01
    0    1    0    4    3   -0.57875479E+00    0.30205283E-02   -0.32376661E-01
    0    1    0    5    3    0.70001316E-02    0.58898552E+00    0.12858202E+00
    0    1    1    1    1    0.59249908E-01   -0.24729566E-01    0.10531492E+00
    0    1    1    2    2   -0.82366517E-02   -0.10216337E-01   -0.27758060E-01
    0    1    1    3    3    0.67805952E-01   -0.18256276E-01    0.24855663E-01
    0    1    1    4    3    0.62714004E+00    0.37547091E-01    0.31944794E-01
    0    1    1    5    3   -0.48933020E-01   -0.62006615E+00   -0.46197416E-01
    1    0    0    1    1    0.17062813E-01   -0.28467520E-01    0.64934740E-01
    1    0    0    2    2    0.97343503E-02    0.12273374E-01    0.50961550E-01
    1    0    0    3    3   -0.71706207E-01   -0.12828248E+00   -0.57296189E-02
    1    0    0    4    3   -0.55333348E+00   -0.13211137E-01    0.11336471E+00
    1    0    0    5    3   -0.39332092E-01    0.61664988E+00    0.52273190E-01
    1    0    1    1    1    0.12992538E-01    0.56622832E-01   -0.47572428E-01
    1    0    1    2    2   -0.15738510E-01   -0.45607226E-01    0.24810970E-02
    1    0    1    3    3    0.31873344E-01    0.13123765E+00   -0.29072399E-01
    1    0    1    4    3    0.58662197E+00    0.12372160E-01   -0.80475330E-01
    1    0    1    5    3   -0.34597537E-01   -0.60197482E+00   -0.15411804E+00
    1    1    0    1    1   -0.73541307E-01    0.56665422E-01   -0.57328027E-01
    1    1    0    2    2   -0.15922355E-01   -0.58030250E-01    0.36087541E-01
    1    1    0    3    3    0.11212624E+00    0.13251961E+00    0.15741755E-01
    1    1    0    4    3    0.64390002E+00    0.27797185E-02   -0.87624863E-01
    1    1    0    5    3    0.23366170E-01   -0.54050233E+00   -0.80258391E-01
    1    1    1    1    1   -0.34281083E-01   -0.14693044E-02   -0.71396030E-01
    1    1    1    2    2   -0.42138002E-01   -0.15324068E-01   -0.28280115E-02
    1    1    1    3    3    0.19303749E-01   -0.69208818E-01   -0.55133702E-03
    1    1    1    4    3   -0.53071564E+00    0.38915180E-02    0.47348365E-01
    1    1    1    5    3   -0.14228938E-01    0.56065836E+00    0.11555118E+00
