    2    2    2
    5    3
Sr        Ti        O         
   -0.30000000E-01   -0.30000000E-01    0.20236279E-02   -0.13136953E-02    0.14319355E-02    0.00000000E+00
    0    0    0    1    1    0.43863934E-01    0.12112135E-01    0.13904717E+00
    0    0    0    2    2   -0.29619850E-01   -0.36344665E-03    0.82849715E-02
    0    0    0    3    3    0.15331244E+00    0.93681590E-01   -0.74106595E-01
    0    0    0    4    3    0.49240242E+00   -0.16277806E-01   -0.25411079E+00
    0    0    0    5    3    0.44581729E-01   -0.67746914E+00   -0.46057589E-01
    0    0    1    1    1    0.32204948E-03    0.62277502E-01   -0.41148833E-01
    0    0    1    2    2   -0.59040626E-02    0.28363626E-01    0.10729675E-01
    0    0    1    3    3   -0.23620547E+00   -0.13913581E+00    0.43429835E-02
    0    0    1    4    3   -0.46897450E+00    0.29133175E-01    0.13020080E+00
    0    0    1    5    3   -0.65472624E-01    0.46927056E+00    0.21168779E+00
    0    1    0    1    1   -0.40512735E-01    0.49604397E-01   -0.14622801E-01
    0    1    0    2    2    0.35067298E-02    0.89924063E-02    0.11555792E-01
    0    1    0    3    3   -0.14698182E+00   -0.25903569E+00   -0.29295890E-01
    0    1    0    4    3   -0.61435328E+00   -0.24986464E-01    0.11598031E+00
    0    1    0    5    3   -0.35462701E-02    0.53279781E+00    0.18511083E+00
    0    1    1    1    1   -0.13529479E-01    0.16665337E-01    0.59506830E-02
    0    1    1    2    2    0.17993724E-01    0.47592758E-01   -0.25488546E-01
    0    1    1    3    3    0.24494259E+00    0.27488647E+00   -0.35758130E-01
    0    1    1    4    3    0.48314542E+00    0.17028052E-01   -0.24961322E+00
    0    1    1    5    3    0.91246914E-02   -0.49212336E+00   -0.13252307E+00
    1    0    0    1    1    0.37536319E-01   -0.10093152E-01   -0.39850150E-01
    1    0    0    2    2   -0.76736896E-01   -0.17319997E-01   -0.30532760E-01
    1    0    0    3    3   -0.18167740E+00   -0.11049815E+00   -0.12612641E-01
    1    0    0    4    3   -0.58974727E+00   -0.27355862E-01    0.66673064E-01
    1    0    0    5    3   -0.30427588E-01    0.52765876E+00    0.17633428E+00
    1    0    1    1    1   -0.85681015E-01    0.47872259E-01   -0.62749851E-01
    1    0    1    2    2    0.11855588E-01   -0.23839744E-01   -0.30993683E-01
    1    0    1    3    3    0.15212129E+00    0.93652007E-01   -0.20476381E-01
    1    0    1    4    3    0.61850426E+00   -0.47497525E-01   -0.79134509E-01
    1    0    1    5    3   -0.24600330E-01   -0.45154757E+00   -0.18624166E+00
    1    1    0    1    1    0.13793582E-01    0.15234551E-01    0.14410672E-01
    1    1    0    2    2    0.24996730E-01   -0.10843455E-01    0.42007642E-02
    1    1    0    3    3    0.24908807E+00    0.73020978E-01    0.95526781E-02
    1    1    0    4    3    0.56781264E+00   -0.53939478E-01   -0.88106061E-01
    1    1    0    5    3    0.33234317E-01   -0.52054598E+00   -0.15625062E+00
    1    1    1    1    1    0.17376157E-01   -0.45175922E-01    0.86830290E-01
    1    1    1    2    2   -0.48749710E-02    0.16908689E-01    0.27270997E-01
    1    1    1    3    3   -0.17285668E+00   -0.64153326E-01    0.12826464E-01
    1    1    1    4    3   -0.49897181E+00    0.20178066E-01    0.16447493E+00
    1    1    1    5    3    0.71159370E-01    0.55527074E+00    0.22420864E+00
