    2    2    2
    5    3
Sr        Ti        O         
   -0.30000000E-01   -0.30000000E-01    0.31956150E-02    0.10649755E-02    0.86836952E-04    0.00000000E+00
    0    0    0    1    1    0.75496724E-01    0.26509041E-01    0.26146210E-01
    0    0    0    2    2   -0.39167354E-01    0.17280682E-01   -0.23876513E-01
    0    0    0    3    3    0.12341347E+00    0.23196146E+00   -0.15573720E-01
    0    0    0    4    3    0.55502291E+00   -0.78845143E-02   -0.17445458E+00
    0    0    0    5    3   -0.19457950E-01   -0.54887493E+00   -0.12469130E+00
    0    0    1    1    1   -0.22331142E-01    0.79783934E-01   -0.19250570E-01
    0    0    1    2    2    0.18552176E-01    0.31948993E-01   -0.21431748E-01
    0    0    1    3    3   -0.14772903E+00   -0.13814601E+00   -0.41497434E-01
    0    0    1    4    3   -0.57137289E+00    0.32310433E-01    0.11561980E+00
    0    0    1    5    3    0.35979908E-01    0.56574674E+00    0.11779709E+00
    0    1    0    1    1    0.45165647E-01   -0.56875452E-01    0.33447956E-01
    0    1    0    2    2    0.59378984E-01   -0.38255411E-02    0.91401096E-02
    0    1    0    3    3   -0.18372988E+00   -0.22392309E+00   -0.20836072E-01
    0    1    0    4    3   -0.64307172E+00   -0.18179568E-01    0.12468570E+00
    0    1    0    5    3    0.56017191E-01    0.53450124E+00    0.27502682E+00
    0    1    1    1    1    0.91770216E-02    0.43232113E-01   -0.26709851E-01
    0    1    1    2    2   -0.50683781E-01    0.58244127E-02    0.12685952E-01
    0    1    1    3    3    0.18134946E+00    0.28285695E+00    0.49217484E-01
    0    1    1    4    3    0.46789415E+00   -0.27649634E-03   -0.26872136E+00
    0    1    1    5    3   -0.33190396E-01   -0.53660170E+00   -0.71790753E-01
    1    0    0    1    1    0.11946919E-01    0.37416290E-02    0.81708334E-02
    1    0    0    2    2   -0.52491451E-01   -0.21245901E-01   -0.18039898E-02
    1    0    0    3    3   -0.10969064E+00   -0.13729830E+00   -0.46617202E-01
    1    0    0    4    3   -0.57301653E+00   -0.17830650E-01    0.59684266E-01
    1    0    0    5    3   -0.57550121E-01    0.59460084E+00    0.85546895E-01
    1    0    1    1    1   -0.18427341E-01   -0.68432413E-01   -0.14977169E-01
    1    0    1    2    2    0.58458507E-01    0.12457308E-01   -0.14955512E-01
    1    0    1    3    3    0.17144358E+00    0.14560156E+00   -0.50724388E-01
    1    0    1    4    3    0.56515221E+00    0.76589053E-02   -0.21193378E+00
    1    0    1    5    3    0.57614636E-01   -0.59821289E+00   -0.14027898E+00
    1    1    0    1    1    0.40176472E-01   -0.47878511E-03    0.35853362E-01
    1    1    0    2    2    0.54690509E-01   -0.40502192E-01    0.15662373E-01
    1    1    0    3    3    0.17996966E+00    0.13224238E+00    0.10700131E-01
    1    1    0    4    3    0.42594526E+00    0.78916555E-02   -0.19771430E+00
    1    1    0    5    3    0.21115145E-01   -0.55004188E+00   -0.98824688E-01
    1    1    1    1    1    0.46531515E-01   -0.35859320E-01    0.91909812E-01
    1    1    1    2    2   -0.15862713E-01    0.19860258E-01    0.98820167E-01
    1    1    1    3    3   -0.19749671E+00   -0.24477001E+00    0.25270942E-01
    1    1    1    4    3   -0.50101955E+00   -0.95003973E-02    0.80528900E-01
    1    1    1    5    3   -0.24202881E-01    0.48274950E+00    0.31074908E+00
