    2    2    2
    5    3
Sr        Ti        O         
   -0.30000000E-01   -0.30000000E-01    0.44646580E-03    0.14155896E-03    0.25729411E-02    0.00000000E+00
    0    0    0    1    1    0.16238528E-01   -0.23012520E-01    0.38296607E-01
    0    0    0    2    2   -0.55210095E-01   -0.97043214E-02   -0.67539561E-02
    0    0    0    3    3    0.15986162E+00    0.73945972E-01   -0.34547861E-01
    0    0    0    4    3    0.46959974E+00   -0.15227041E-01   -0.19490564E+00
    0    0    0    5    3   -0.10472951E-01   -0.59551898E+00   -0.15204857E+00
    0    0    1    1    1   -0.43698114E-01   -0.51071596E-02    0.52224444E-01
    0    0    1    2    2   -0.33573610E-01    0.62466346E-02   -0.31255770E-01
    0    0    1    3    3   -0.14868323E+00   -0.72546591E-01    0.13903317E-01
    0    0    1    4    3   -0.52184323E+00    0.44975328E-02    0.13224514E+00
    0    0    1    5    3   -0.20291025E-01    0.56659443E+00    0.17479183E+00
    0    1    0    1    1    0.57467109E-01    0.52813274E-01   -0.13977970E-01
    0    1    0    2    2   -0.21011157E-01   -0.17614574E-01   -0.39983876E-01
    0    1    0    3    3   -0.85057862E-01   -0.26379145E+00   -0.33092630E-01
    0    1    0    4    3   -0.59391591E+00   -0.43466590E-01    0.11778844E+00
    0    1    0    5    3    0.43122774E-01    0.45373666E+00    0.13633486E+00
    0    1    1    1    1    0.40079740E-01    0.18380450E-01   -0.14545799E-01
    0    1    1    2    2    0.82985339E-02    0.18784110E-01    0.63558916E-02
    0    1    1    3    3    0.17149025E+00    0.13714289E+00    0.11042524E-02
    0    1    1    4    3    0.50569888E+00   -0.21147069E-01   -0.21754211E+00
    0    1    1    5    3    0.37122062E-01   -0.45982483E+00   -0.15634724E+00
    1    0    0    1    1    0.67972441E-02    0.50021950E-01    0.56871403E-01
    1    0    0    2    2   -0.60561523E-03    0.47509264E-01   -0.53645392E-01
    1    0    0    3    3   -0.19868434E+00   -0.15853423E+00    0.10615017E-01
    1    0    0    4    3   -0.51468284E+00    0.21007067E-02    0.11239830E+00
    1    0    0    5    3   -0.13441836E-02    0.53557347E+00    0.93468192E-01
    1    0    1    1    1    0.21865578E-01   -0.40756969E-01    0.16026984E-01
    1    0    1    2    2   -0.21118586E-01   -0.15859571E-01   -0.31004431E-01
    1    0    1    3    3    0.67324780E-01    0.21602065E+00    0.64748131E-02
    1    0    1    4    3    0.45289720E+00   -0.39607233E-02   -0.69942406E-01
    1    0    1    5    3   -0.92689240E-02   -0.48984009E+00   -0.23760158E+00
    1    1    0    1    1   -0.37698393E-01    0.21129236E-01   -0.37059041E-01
    1    1    0    2    2   -0.43826515E-02    0.50439738E-01   -0.11131432E-02
    1    1    0    3    3    0.20828330E+00    0.18755361E+00    0.55824383E-01
    1    1    0    4    3    0.53882296E+00    0.38260831E-01   -0.37218527E-01
    1    1    0    5    3    0.48979443E-01   -0.48809247E+00   -0.42543875E-01
    1    1    1    1    1    0.50270406E-01   -0.62637119E-02   -0.23744329E-01
    1    1    1    2    2   -0.27610163E-01   -0.10717093E-01    0.48011095E-02
    1    1    1    3    3   -0.10383928E+00   -0.16937928E+00    0.28773686E-01
    1    1    1    4    3   -0.48122705E+00    0.13514756E-01    0.21018899E+00
    1    1    1    5    3    0.29999073E-01    0.41609911E+00    0.16038647E+00
