    2    2    2
    5    3
Sr        Ti        O         
   -0.30000000E-01   -0.30000000E-01    0.19883953E-01   -0.68092909E-02    0.25156701E-02    0.00000000E+00
    0    0    0    1    1    0.38584501E-01   -0.35475932E-01    0.33442618E-01
    0    0    0    2    2   -0.15040684E-01    0.27570405E-01   -0.62098095E-01
    0    0    0    3    3   -0.14317537E-01    0.72143810E-01   -0.35297460E-01
    0    0    0    4    3    0.55144128E+00    0.12736784E-01    0.35958126E-01
    0    0    0    5    3   -0.19049795E-01   -0.57901421E+00   -0.56988357E-01
    0    0    1    1    1   -0.39571258E-01   -0.63739533E-01    0.42841038E-01
    0    0    1    2    2    0.43249129E-01   -0.15011594E-01   -0.52292227E-01
    0    0    1    3    3   -0.36719606E-01   -0.71330485E-02    0.32146009E-02
    0    0    1    4    3   -0.63717320E+00    0.25931668E-01    0.85365184E-02
    0    0    1    5    3    0.14139408E-02    0.65030324E+00   -0.80377061E-01
    0    1    0    1    1    0.22084959E-01   -0.71503520E-01   -0.19803244E-01
    0    1    0    2    2    0.42086833E-01   -0.44951780E-02    0.13792995E+00
    0    1    0    3    3   -0.13638973E+00   -0.76624142E-02    0.24450276E-01
    0    1    0    4    3   -0.56427799E+00    0.23024598E-01   -0.67722170E-02
    0    1    0    5    3    0.11117202E-01    0.55472487E+00    0.12078315E+00
    0    1    1    1    1    0.58833065E-03    0.57345497E-01    0.36700163E-01
    0    1    1    2    2   -0.65912161E-02   -0.45708864E-01    0.91199412E-01
    0    1    1    3    3    0.53391845E-01    0.55347703E-01   -0.31125843E-01
    0    1    1    4    3    0.58549246E+00    0.34198737E-01    0.12495596E-02
    0    1    1    5    3    0.29535821E-01   -0.66452042E+00    0.27955212E-01
    1    0    0    1    1    0.76523355E-01    0.63634822E-02    0.90780940E-01
    1    0    0    2    2    0.61509902E-02    0.18126604E-01   -0.47985205E-01
    1    0    0    3    3    0.26585372E-01   -0.96743319E-01   -0.50876946E-01
    1    0    0    4    3   -0.56539772E+00   -0.13356246E-01    0.12565124E+00
    1    0    0    5    3    0.80932734E-02    0.52474228E+00   -0.34732381E-01
    1    0    1    1    1   -0.12756700E-01    0.19487627E-01    0.50306104E-01
    1    0    1    2    2   -0.91381606E-02    0.10184434E-01    0.18821321E-02
    1    0    1    3    3   -0.33948538E-02    0.85212029E-01   -0.70774325E-01
    1    0    1    4    3    0.59964790E+00   -0.33696948E-02   -0.14085249E+00
    1    0    1    5    3   -0.31890383E-01   -0.54249347E+00   -0.11333064E+00
    1    1    0    1    1   -0.51542392E-01    0.39214892E-01    0.86380392E-01
    1    1    0    2    2    0.49839354E-01    0.21210092E-02   -0.85086252E-02
    1    1    0    3    3    0.85897198E-01    0.97404918E-01   -0.32729725E-01
    1    1    0    4    3    0.60064706E+00    0.25315183E-01   -0.97978506E-01
    1    1    0    5    3    0.65487631E-02   -0.62370514E+00   -0.15335380E-01
    1    1    1    1    1    0.11087861E-01   -0.21319504E-01   -0.24253104E-01
    1    1    1    2    2   -0.27532355E-01   -0.38130657E-01    0.47368927E-02
    1    1    1    3    3   -0.41578820E-01   -0.99680587E-01   -0.38549983E-01
    1    1    1    4    3   -0.62043955E+00   -0.23252158E-01    0.30345510E-01
    1    1    1    5    3   -0.17205466E-01    0.61481572E+00    0.66317976E-01
