    2    2    2
    5    3
Sr        Ti        O         
    0.00000000E+00    0.00000000E+00   -0.13791827E-02    0.17639010E-02   -0.17141969E-02    0.00000000E+00
    0    0    0    1    1   -0.62232265E-01    0.36698166E-01   -0.27024589E-02
    0    0    0    2    2   -0.10990046E-01   -0.92956514E-02    0.50351507E-01
    0    0    0    3    3   -0.30970092E-01    0.13268013E+00    0.15453059E-01
    0    0    0    4    3    0.15367604E+00   -0.42028574E-02   -0.10825215E+00
    0    0    0    5    3    0.39468450E-02   -0.16591272E+00    0.42018735E-01
    0    0    1    1    1   -0.21565790E-01   -0.20577902E-01    0.11038875E-01
    0    0    1    2    2   -0.17496121E-01   -0.34139366E-02    0.47440699E-01
    0    0    1    3    3    0.17311401E-01   -0.87597724E-01    0.27501725E-01
    0    0    1    4    3   -0.18177359E+00    0.19224413E-01    0.12646812E+00
    0    0    1    5    3    0.22564380E-01    0.22467275E+00   -0.25514667E-01
    0    1    0    1    1   -0.72194076E-01   -0.26797754E-01    0.20684940E-01
    0    1    0    2    2   -0.28332529E-01    0.12004936E-01   -0.10441945E-01
    0    1    0    3    3   -0.52319074E-01   -0.11554550E+00    0.10426349E-01
    0    1    0    4    3   -0.83327889E-01    0.32675236E-02    0.50188772E-01
    0    1    0    5    3    0.21948705E-01    0.55410643E-01    0.12609283E+00
    0    1    1    1    1    0.91458002E-03   -0.42655629E-01    0.33528396E-01
    0    1    1    2    2    0.70233801E-02   -0.19458380E-01    0.85580054E-02
    0    1    1    3    3    0.89121530E-01    0.11714003E+00   -0.53397812E-02
    0    1    1    4    3    0.74139645E-01   -0.20887487E-01   -0.91233701E-01
    0    1    1    5    3   -0.28150628E-02   -0.14378649E+00   -0.94434328E-01
    1    0    0    1    1    0.35840232E-01   -0.29491698E-01    0.43539736E-01
    1    0    0    2    2    0.10588957E-01   -0.70570052E-02   -0.42828781E-01
    1    0    0    3    3    0.17254270E-01   -0.18933931E+00   -0.14401220E-01
    1    0    0    4    3   -0.67297569E-01    0.54334120E-02    0.19076977E+00
    1    0    0    5    3    0.29506485E-01    0.10493883E+00   -0.14426350E-01
    1    0    1    1    1   -0.11749958E-01   -0.24452701E-01    0.19480603E-01
    1    0    1    2    2    0.61768074E-02    0.28718876E-01   -0.30887096E-01
    1    0    1    3    3   -0.12642299E-01    0.16447353E+00    0.49807423E-02
    1    0    1    4    3    0.20539503E+00    0.26204036E-01   -0.21058577E+00
    1    0    1    5    3    0.23828585E-02   -0.13096263E+00    0.37637260E-01
    1    1    0    1    1   -0.36951213E-01   -0.76662222E-01    0.87359018E-02
    1    1    0    2    2   -0.43647316E-02    0.25641226E-01   -0.32354689E-01
    1    1    0    3    3    0.92341886E-01    0.20819635E+00   -0.81315627E-02
    1    1    0    4    3    0.10458643E+00    0.13669423E-01   -0.24777715E+00
    1    1    0    5    3    0.43585920E-01   -0.12613510E+00   -0.12451306E+00
    1    1    1    1    1    0.20168807E-02    0.53562592E-01   -0.17187437E-01
    1    1    1    2    2   -0.36704331E-02    0.11396290E-01   -0.15441668E-01
    1    1    1    3    3   -0.78750725E-01   -0.17631990E+00    0.65943040E-02
    1    1    1    4    3   -0.15817768E+00    0.31109658E-01    0.13185748E+00
    1    1    1    5    3   -0.27011297E-02    0.14610978E+00    0.83105988E-01
