    2    2    2
    5    3
Sr        Ti        O         
    0.00000000E+00    0.00000000E+00   -0.17080698E-02   -0.20330954E-03    0.18973847E-02    0.00000000E+00
    0    0    0    1    1   -0.26686040E-01   -0.24908168E-01   -0.13430739E-02
    0    0    0    2    2    0.18189742E-01    0.30935167E-01   -0.51865062E-02
    0    0    0    3    3   -0.33080308E-01    0.29707273E+00   -0.37369399E-01
    0    0    0    4    3    0.20123409E+00   -0.78758251E-02   -0.24247188E+00
    0    0    0    5    3   -0.40637306E-01   -0.29281557E+00   -0.19369047E-01
    0    0    1    1    1    0.17653824E-01   -0.22605624E-01    0.59186600E-01
    0    0    1    2    2    0.29649886E-01   -0.91552656E-02    0.35279529E-01
    0    0    1    3    3    0.59428880E-01   -0.32074408E+00    0.19815098E-01
    0    0    1    4    3   -0.23765603E+00   -0.68561561E-02    0.28600937E+00
    0    0    1    5    3   -0.11517505E-02    0.29075284E+00   -0.26809071E-01
    0    1    0    1    1    0.59478871E-01   -0.71704628E-01   -0.27081918E-01
    0    1    0    2    2   -0.37637147E-02    0.38497589E-01    0.16611521E-01
    0    1    0    3    3   -0.74726704E-01   -0.33288556E+00    0.81170816E-02
    0    1    0    4    3   -0.22123142E+00   -0.18407940E-01    0.32972199E+00
    0    1    0    5    3   -0.35425507E-02    0.19771449E+00    0.84154215E-01
    0    1    1    1    1    0.19571226E-02   -0.42159687E-01   -0.83260281E-02
    0    1    1    2    2    0.37204543E-01   -0.67022796E-02    0.38981004E-01
    0    1    1    3    3    0.69553776E-01    0.24213781E+00    0.61694120E-02
    0    1    1    4    3    0.21469935E+00   -0.67389940E-02   -0.29142838E+00
    0    1    1    5    3    0.22799150E-01   -0.19660459E+00   -0.62130180E-01
    1    0    0    1    1    0.40495126E-01    0.11421013E-01    0.48035840E-01
    1    0    0    2    2   -0.20903975E-01   -0.98519471E-02   -0.71005103E-02
    1    0    0    3    3    0.20189649E-01   -0.36226051E+00   -0.23293479E-02
    1    0    0    4    3   -0.31400606E+00   -0.17338817E-01    0.29968256E+00
    1    0    0    5    3   -0.25999086E-01    0.22465920E+00   -0.98680253E-01
    1    0    1    1    1   -0.43583934E-01   -0.28298573E-01   -0.12523842E-01
    1    0    1    2    2   -0.13392015E-03    0.10548691E-01   -0.11442480E-01
    1    0    1    3    3   -0.37032131E-01    0.30865649E+00   -0.47419983E-02
    1    0    1    4    3    0.18518484E+00    0.41280494E-01   -0.29667900E+00
    1    0    1    5    3   -0.90261675E-02   -0.13760786E+00   -0.86617938E-02
    1    1    0    1    1    0.52867088E-01    0.51435445E-01    0.19391613E-01
    1    1    0    2    2    0.69524305E-02   -0.50539702E-02   -0.46438167E-02
    1    1    0    3    3    0.97628659E-01    0.41367862E+00    0.14710596E-01
    1    1    0    4    3    0.19232450E+00   -0.19885494E-01   -0.32769337E+00
    1    1    0    5    3   -0.16247057E-01   -0.26557899E+00   -0.15054339E+00
    1    1    1    1    1   -0.67243054E-02    0.31980150E-01   -0.23561762E-02
    1    1    1    2    2    0.31990994E-01    0.16253803E-01   -0.39828464E-02
    1    1    1    3    3   -0.56065050E-01   -0.28892577E+00   -0.10544714E-01
    1    1    1    4    3   -0.19279623E+00    0.38494789E-01    0.35005193E+00
    1    1    1    5    3    0.55112232E-02    0.24944697E+00    0.47520665E-01
