    2    2    2
    5    3
Sr        Ti        O         
    0.00000000E+00    0.00000000E+00   -0.14496105E-02    0.11955053E-02    0.13108508E-02    0.00000000E+00
    0    0    0    1    1    0.14915883E-01   -0.65866125E-02    0.30882857E-01
    0    0    0    2    2    0.52962759E-02    0.41852359E-02    0.37209038E-01
    0    0    0    3    3   -0.25622203E-01    0.14767318E+00    0.50045423E-01
    0    0    0    4    3    0.14673561E+00   -0.54853696E-02   -0.18406798E+00
    0    0    0    5    3    0.12422102E-01   -0.16843793E+00    0.85905108E-01
    0    0    1    1    1   -0.47552360E-01   -0.23408062E-01    0.15611686E-02
    0    0    1    2    2   -0.51700383E-01   -0.33330146E-01    0.25325072E-01
    0    0    1    3    3    0.41040142E-01   -0.17462395E+00    0.32638056E-01
    0    0    1    4    3   -0.22572084E+00   -0.17459991E-01    0.17824721E+00
    0    0    1    5    3   -0.84332069E-02    0.26775094E+00   -0.24854077E-01
    0    1    0    1    1    0.22598056E-01    0.11686121E-01    0.13181158E-01
    0    1    0    2    2    0.42964041E-01    0.94797157E-02    0.15921922E-01
    0    1    0    3    3   -0.71642042E-01   -0.11887159E+00   -0.44201352E-02
    0    1    0    4    3   -0.19024870E+00    0.50543171E-02    0.22811781E+00
    0    1    0    5    3    0.28281634E-01    0.16173016E+00    0.10990756E+00
    0    1    1    1    1   -0.31766929E-01   -0.88318435E-02   -0.21647696E-01
    0    1    1    2    2    0.82227358E-03   -0.43590713E-01   -0.20408095E-01
    0    1    1    3    3    0.20099562E+00    0.22166388E+00   -0.22025490E-01
    0    1    1    4    3    0.15228159E+00   -0.16419347E-01   -0.20182418E+00
    0    1    1    5    3   -0.17009205E-01   -0.15114218E+00   -0.18406637E+00
    1    0    0    1    1    0.22539218E-01   -0.25345654E-01   -0.29901701E-01
    1    0    0    2    2    0.15210329E-02    0.25816605E-01    0.15395384E-01
    1    0    0    3    3   -0.28200762E-01   -0.22377890E+00   -0.23314425E-02
    1    0    0    4    3   -0.14265118E+00   -0.17340704E-01    0.21121401E+00
    1    0    0    5    3    0.60497387E-02    0.12203827E+00   -0.12769720E-01
    1    0    1    1    1   -0.40817900E-01   -0.23278013E-02    0.10194590E-01
    1    0    1    2    2   -0.11358066E-01    0.15744063E-01    0.53591822E-02
    1    0    1    3    3   -0.58909795E-01    0.24918669E+00   -0.27612364E-01
    1    0    1    4    3    0.23388945E+00    0.64493993E-04   -0.25884752E+00
    1    0    1    5    3   -0.27413491E-01   -0.21582133E+00    0.64262199E-01
    1    1    0    1    1   -0.12958231E-02   -0.69791010E-02   -0.26715791E-01
    1    1    0    2    2    0.12591937E-01    0.26419841E-01   -0.11423962E-01
    1    1    0    3    3    0.16361598E+00    0.21478275E+00   -0.94641846E-02
    1    1    0    4    3    0.16862312E+00   -0.86939215E-02   -0.24523482E+00
    1    1    0    5    3    0.45093625E-01   -0.17554499E+00   -0.11118249E+00
    1    1    1    1    1   -0.13545890E-01   -0.40379560E-01    0.40688615E-01
    1    1    1    2    2   -0.23146280E-01   -0.21051006E-02   -0.12015677E-01
    1    1    1    3    3   -0.86175462E-01   -0.19447013E+00   -0.14460608E-01
    1    1    1    4    3   -0.20397878E+00    0.78478699E-02    0.24168785E+00
    1    1    1    5    3   -0.15088029E-01    0.18985081E+00    0.27530074E-01
