    2    2    2
    5    3
Sr        Ti        O         
    0.00000000E+00    0.00000000E+00   -0.28698155E-02   -0.14224472E-03    0.17210995E-02    0.00000000E+00
    0    0    0    1    1   -0.22852304E-02   -0.87188050E-02   -0.69212657E-01
    0    0    0    2    2    0.18687640E-01   -0.42865513E-02   -0.27269871E-01
    0    0    0    3    3    0.48817659E-01    0.35152376E+00   -0.13079991E-01
    0    0    0    4    3    0.23542321E+00    0.26401025E-01   -0.26813240E+00
    0    0    0    5    3   -0.28112845E-01   -0.21546640E+00   -0.38820060E-01
    0    0    1    1    1    0.19347816E-01   -0.48590032E-01    0.45746725E-03
    0    0    1    2    2    0.13283160E-01    0.45219601E-02   -0.17005155E-01
    0    0    1    3    3   -0.58314344E-01   -0.30684358E+00   -0.24130708E-02
    0    0    1    4    3   -0.13490871E+00   -0.13907913E-01    0.37270675E+00
    0    0    1    5    3   -0.33267933E-01    0.17338630E+00    0.91126292E-01
    0    1    0    1    1   -0.94857730E-02   -0.24518330E-01   -0.19088897E-01
    0    1    0    2    2   -0.20088496E-01    0.36712128E-02   -0.54557797E-01
    0    1    0    3    3   -0.33857976E-02   -0.39335068E+00   -0.33049202E-02
    0    1    0    4    3   -0.18708359E+00    0.19712734E-01    0.32394764E+00
    0    1    0    5    3   -0.10922860E-01    0.29462042E+00    0.33718095E-01
    0    1    1    1    1   -0.24831383E-01    0.86774461E-02    0.53264949E-02
    0    1    1    2    2    0.41702976E-01   -0.38162455E-01   -0.33495576E-01
    0    1    1    3    3    0.20780403E-01    0.33421209E+00   -0.64656461E-02
    0    1    1    4    3    0.19028669E+00    0.12132107E-01   -0.33843084E+00
    0    1    1    5    3    0.16166852E-01   -0.17336708E+00    0.33117109E-01
    1    0    0    1    1    0.35296357E-01    0.32872313E-03    0.17899173E-01
    1    0    0    2    2    0.32601760E-01   -0.93770915E-02   -0.24845668E-01
    1    0    0    3    3   -0.59262322E-01   -0.33313870E+00    0.11635038E-01
    1    0    0    4    3   -0.28486718E+00   -0.61860792E-02    0.33111298E+00
    1    0    0    5    3   -0.19778182E-01    0.19748225E+00    0.93843879E-01
    1    0    1    1    1    0.49956241E-01    0.17207144E-02    0.19797613E-01
    1    0    1    2    2   -0.25490792E-01    0.16665863E-01   -0.38087057E-01
    1    0    1    3    3    0.29365976E-01    0.39732919E+00   -0.45988343E-02
    1    0    1    4    3    0.11441631E+00   -0.30569428E-01   -0.32478205E+00
    1    0    1    5    3    0.18847606E-01   -0.12504003E+00   -0.10515146E+00
    1    1    0    1    1    0.34797982E-02    0.39880722E-01   -0.18213804E-01
    1    1    0    2    2   -0.36844583E-01   -0.19440976E-01   -0.27169547E-01
    1    1    0    3    3   -0.30047791E-02    0.34998037E+00    0.20376466E-01
    1    1    0    4    3    0.19621459E+00   -0.17116217E-02   -0.34285355E+00
    1    1    0    5    3    0.26677280E-02   -0.26242715E+00    0.21719072E-01
    1    1    1    1    1   -0.48164133E-03    0.68760144E-01   -0.32105447E-01
    1    1    1    2    2   -0.14352285E-01   -0.51704612E-01   -0.23456377E-02
    1    1    1    3    3    0.16522867E-01   -0.37687678E+00   -0.31689556E-03
    1    1    1    4    3   -0.16294924E+00   -0.90036214E-02    0.37741555E+00
    1    1    1    5    3    0.15852327E-01    0.15168089E+00    0.57547215E-01
