2	2	2
5	3
Sr	Ti	O
3.00000000E-02	3.00000000E-02	0.00000000E+00	0.00000000E+00	0.00000000E+00	0.00000000E+00
0	0	0	1	1	-5.39520330E-02	6.06530109E-02	2.79000509E-02
0	0	0	2	2	-1.00932724E-01	1.16719172E-01	1.84179501E-03
0	0	0	3	3	2.98081822E-01	5.79395274E-02	-1.17208953E-02
0	0	0	4	3	-4.95205315E-02	-5.28225406E-02	-1.98545246E-01
0	0	0	5	3	5.34030741E-02	2.50866773E-02	-1.90704333E-01
0	0	1	1	1	-4.88934080E-02	6.77394934E-02	4.28592793E-03
0	0	1	2	2	-1.18241456E-01	1.13160785E-01	2.06149445E-03
0	0	1	3	3	-1.30776506E-01	-2.86742678E-01	-5.48889547E-03
0	0	1	4	3	5.69475818E-02	-5.70143802E-02	1.61140990E-01
0	0	1	5	3	4.44390215E-02	-4.66080344E-02	1.59416190E-01
0	1	0	1	1	-3.79562818E-02	7.80084042E-02	1.64971540E-02
0	1	0	2	2	-9.41146037E-02	1.25383711E-01	1.07325781E-02
0	1	0	3	3	-1.03818692E-01	-3.01111499E-01	-8.73551498E-03
0	1	0	4	3	5.87316850E-02	-7.05285592E-02	1.66399049E-01
0	1	0	5	3	6.71875258E-02	-6.30511963E-02	1.90730074E-01
0	1	1	1	1	-7.17034828E-02	6.16677249E-02	1.75435907E-02
0	1	1	2	2	-9.25708457E-02	1.24661450E-01	1.50132341E-02
0	1	1	3	3	3.08646356E-01	8.17019996E-02	1.21467441E-02
0	1	1	4	3	-2.98918003E-02	-4.66519273E-02	-1.49185199E-01
0	1	1	5	3	3.04625612E-02	2.64451647E-02	-1.87877746E-01
1	0	0	1	1	-5.15372104E-02	8.52689140E-02	-5.36659169E-02
1	0	0	2	2	-1.10169548E-01	1.09124277E-01	7.07870562E-03
1	0	0	3	3	-1.00608808E-01	-3.15962882E-01	-1.15615798E-02
1	0	0	4	3	6.02835262E-02	-5.94299279E-02	2.26312306E-01
1	0	0	5	3	5.44639297E-02	-7.31254134E-02	2.01763510E-01
1	0	1	1	1	-5.44707602E-02	2.48046190E-02	8.30957746E-03
1	0	1	2	2	-1.19913678E-01	1.17884009E-01	-5.38072945E-03
1	0	1	3	3	2.83018640E-01	1.85211072E-01	-1.07612699E-02
1	0	1	4	3	-9.06516033E-03	-4.62418208E-02	-2.35887906E-01
1	0	1	5	3	5.26584456E-02	-2.46380041E-02	-1.99121209E-01
1	1	0	1	1	-5.68287385E-02	2.82598785E-02	8.78895122E-03
1	1	0	2	2	-1.07654139E-01	1.03652229E-01	-1.63279685E-02
1	1	0	3	3	2.68215928E-01	1.48583229E-01	-4.31865024E-03
1	1	0	4	3	-1.75779222E-03	-4.93922292E-02	-2.31134603E-01
1	1	0	5	3	4.73246255E-02	1.15522066E-02	-1.67912709E-01
1	1	1	1	1	-3.40230065E-02	5.82049526E-02	-1.17329239E-02
1	1	1	2	2	-8.08831356E-02	1.25016400E-01	-1.32211646E-02
1	1	1	3	3	-1.12915869E-01	-3.47717530E-01	8.13491338E-03
1	1	1	4	3	5.27964893E-02	-5.95364926E-02	2.68136374E-01
1	1	1	5	3	3.55389983E-02	-3.61537950E-02	1.99051248E-01
