    2    2    2
    5    3
Sr        Ti        O         
    0.30000000E-01    0.30000000E-01   -0.53647541E-02    0.40658194E-02   -0.14333945E-03    0.00000000E+00
    0    0    0    1    1   -0.12865211E+00    0.80979039E-01   -0.29833220E-01
    0    0    0    2    2   -0.69521058E-01    0.86567215E-01   -0.27329635E-01
    0    0    0    3    3    0.33528023E+00    0.12258074E+00   -0.26126494E-01
    0    0    0    4    3    0.15313326E-01   -0.63069284E-01   -0.23578853E+00
    0    0    0    5    3    0.59258699E-01    0.98655196E-01   -0.14840435E+00
    0    0    1    1    1    0.35369737E-01    0.11417346E+00    0.41247616E-01
    0    0    1    2    2   -0.13571717E+00    0.10879108E+00   -0.24904403E-01
    0    0    1    3    3   -0.22099127E+00   -0.28837236E+00   -0.18198770E-01
    0    0    1    4    3    0.95048858E-03   -0.39754070E-01    0.23631343E+00
    0    0    1    5    3    0.63876716E-01    0.39695290E-02    0.17476110E+00
    0    1    0    1    1   -0.11620182E-01    0.99937807E-01    0.35252944E-01
    0    1    0    2    2   -0.99511250E-01    0.58734482E-01   -0.21729777E-01
    0    1    0    3    3   -0.75016520E-01   -0.35909422E+00    0.15966359E-01
    0    1    0    4    3    0.83098022E-01   -0.40846108E-01    0.91869766E-01
    0    1    0    5    3    0.13874596E-01   -0.14117231E+00    0.18343409E+00
    0    1    1    1    1   -0.12609842E+00    0.37562952E-01   -0.45730710E-01
    0    1    1    2    2   -0.76468810E-01    0.12394551E+00    0.41476536E-01
    0    1    1    3    3    0.35954186E+00    0.85987753E-01    0.37683187E-01
    0    1    1    4    3   -0.82470911E-01   -0.34816701E-01   -0.20465589E+00
    0    1    1    5    3    0.82141049E-01    0.11736011E-01   -0.13276853E+00
    1    0    0    1    1    0.12649015E+00    0.63343854E-01   -0.62587851E-01
    1    0    0    2    2   -0.96371153E-01    0.12210060E+00   -0.18015785E-01
    1    0    0    3    3   -0.84490208E-01   -0.34604849E+00    0.61321134E-02
    1    0    0    4    3   -0.41739740E-02   -0.42740407E-01    0.27716055E+00
    1    0    0    5    3    0.52796082E-01   -0.67201429E-01    0.26238305E+00
    1    0    1    1    1    0.27303050E-01    0.34260502E-01    0.15681650E-01
    1    0    1    2    2   -0.99162212E-01    0.90389166E-01   -0.12714234E-01
    1    0    1    3    3    0.34499777E+00    0.13266655E+00    0.52555659E-01
    1    0    1    4    3   -0.53745838E-01   -0.35988494E-01   -0.21191710E+00
    1    0    1    5    3    0.35770023E-01    0.56393827E-01   -0.24451425E+00
    1    1    0    1    1   -0.89673835E-01    0.46210139E-01   -0.89344415E-02
    1    1    0    2    2   -0.11866701E+00    0.10641059E+00    0.97355514E-02
    1    1    0    3    3    0.21662808E+00    0.19140956E+00    0.45025423E-01
    1    1    0    4    3   -0.60886637E-01   -0.10585006E+00   -0.23988704E+00
    1    1    0    5    3    0.63113765E-01    0.33631277E-01   -0.23293735E+00
    1    1    1    1    1   -0.93455399E-01    0.10070495E+00   -0.84322513E-01
    1    1    1    2    2   -0.73780604E-01    0.22487411E-01   -0.20199479E-01
    1    1    1    3    3   -0.12689996E+00   -0.41773795E+00   -0.10067435E-01
    1    1    1    4    3   -0.26023121E-01   -0.31591812E-01    0.28057122E+00
    1    1    1    5    3    0.37594011E-01   -0.19345516E-01    0.25431754E+00
