    2    2    2
    5    3
Sr        Ti        O         
    0.30000000E-01    0.30000000E-01   -0.17128658E-01    0.48704609E-02    0.10201711E-02    0.00000000E+00
    0    0    0    1    1   -0.20517616E-01    0.69608913E-01   -0.75996396E-02
    0    0    0    2    2   -0.87684810E-01    0.11216785E+00   -0.34160491E-01
    0    0    0    3    3    0.39730795E+00    0.10010519E+00   -0.11755980E-01
    0    0    0    4    3   -0.13690681E+00   -0.39726569E-01   -0.75851821E-01
    0    0    0    5    3    0.56360305E-01    0.25435677E-01   -0.24200416E+00
    0    0    1    1    1    0.30888836E-01    0.94772054E-01   -0.80145160E-01
    0    0    1    2    2   -0.10818457E+00    0.12742476E+00    0.13131333E-01
    0    0    1    3    3   -0.24536052E+00   -0.26829972E+00    0.20017417E-01
    0    0    1    4    3    0.64366124E-02   -0.66732576E-01    0.30325299E+00
    0    0    1    5    3   -0.28333380E-02    0.44539668E-01    0.25754617E+00
    0    1    0    1    1   -0.11025033E+00    0.38660420E-01   -0.46058584E-01
    0    1    0    2    2   -0.10676226E-02    0.60942893E-01    0.31096755E-01
    0    1    0    3    3   -0.26205892E+00   -0.33233532E+00    0.69472476E-01
    0    1    0    4    3    0.71848402E-01   -0.90462240E-01    0.11506811E+00
    0    1    0    5    3    0.24407801E-01   -0.13461874E+00    0.24819485E+00
    0    1    1    1    1    0.52191266E-01    0.44702758E-04    0.41211713E-02
    0    1    1    2    2   -0.14971533E+00    0.91024562E-01    0.51202915E-01
    0    1    1    3    3    0.37218104E+00    0.13091516E+00    0.20991208E-01
    0    1    1    4    3   -0.37603153E-01   -0.32900560E-01   -0.20995035E+00
    0    1    1    5    3    0.49288654E-01    0.53273519E-01   -0.18445248E+00
    1    0    0    1    1    0.28027369E-01    0.94726738E-01   -0.97549123E-01
    1    0    0    2    2   -0.98592598E-01    0.59118321E-01   -0.18714756E-01
    1    0    0    3    3   -0.20474262E+00   -0.30306792E+00   -0.19844392E-01
    1    0    0    4    3    0.16783086E+00   -0.27491618E-01    0.10987538E+00
    1    0    0    5    3    0.33639478E-01   -0.13693067E+00    0.27564400E+00
    1    0    1    1    1   -0.10973500E+00   -0.61657842E-02   -0.87749757E-02
    1    0    1    2    2   -0.11807019E+00    0.15432938E+00   -0.94665233E-03
    1    0    1    3    3    0.34023875E+00    0.25002808E-01   -0.31464499E-01
    1    0    1    4    3   -0.89834334E-01   -0.80756848E-01   -0.25725160E+00
    1    0    1    5    3    0.23276118E-01    0.72397712E-01   -0.30824306E+00
    1    1    0    1    1    0.22690770E-01    0.46994901E-01    0.11980336E+00
    1    1    0    2    2   -0.25812204E-01    0.12066737E+00   -0.32398679E-02
    1    1    0    3    3    0.33392187E+00    0.92478670E-01    0.33747578E-02
    1    1    0    4    3   -0.76332697E-02   -0.24304041E-01   -0.20669614E+00
    1    1    0    5    3    0.17652542E-01    0.27874046E-01   -0.27351683E+00
    1    1    1    1    1    0.87970815E-02    0.58421653E-01    0.71089124E-02
    1    1    1    2    2   -0.14555397E+00    0.12893772E+00    0.20179835E-01
    1    1    1    3    3   -0.16045740E+00   -0.22688728E+00   -0.14765293E-01
    1    1    1    4    3    0.60527127E-01   -0.10026051E+00    0.21443479E+00
    1    1    1    5    3    0.25101772E-01    0.41075720E-01    0.24846945E+00
