    2    2    2
    5    3
Sr        Ti        O         
    0.30000000E-01    0.30000000E-01   -0.24516708E-01    0.51686623E-02    0.29852995E-02    0.00000000E+00
    0    0    0    1    1   -0.12299939E+00    0.97450231E-01   -0.48230265E-01
    0    0    0    2    2   -0.50334454E-01    0.95696259E-01   -0.14762206E-01
    0    0    0    3    3    0.31376722E+00    0.16529899E+00   -0.11258457E-01
    0    0    0    4    3    0.11100132E+00   -0.88006257E-01   -0.33728628E+00
    0    0    0    5    3    0.58400231E-01    0.20538698E-01   -0.17788552E+00
    0    0    1    1    1    0.72080177E-03    0.63462048E-01    0.70057160E-01
    0    0    1    2    2   -0.69087954E-01    0.16724397E+00   -0.21063292E-01
    0    0    1    3    3   -0.31264650E-01   -0.41872880E+00   -0.58523168E-02
    0    0    1    4    3   -0.52114551E-01   -0.63985442E-01    0.16887501E+00
    0    0    1    5    3    0.43516501E-01    0.74225974E-01    0.26146165E+00
    0    1    0    1    1   -0.51019160E-02    0.17802024E-01   -0.18085153E-01
    0    1    0    2    2   -0.89307815E-01    0.25253618E-01   -0.25810381E-01
    0    1    0    3    3   -0.18188186E+00   -0.38327658E+00   -0.38734677E-01
    0    1    0    4    3   -0.55338453E-01   -0.66119287E-01    0.23595607E+00
    0    1    0    5    3    0.72166488E-01    0.10488284E+00    0.33917206E+00
    0    1    1    1    1   -0.47264278E-01   -0.11178346E-01   -0.62321609E-01
    0    1    1    2    2   -0.12491218E+00    0.11802581E+00    0.67957950E-02
    0    1    1    3    3    0.43336761E+00    0.85613391E-02   -0.31521871E-01
    0    1    1    4    3   -0.53762991E-01   -0.82455679E-01   -0.25559012E+00
    0    1    1    5    3    0.46633107E-01   -0.11091640E-01   -0.33563396E+00
    1    0    0    1    1   -0.10697642E+00    0.85278774E-01    0.21576788E-01
    1    0    0    2    2   -0.83130703E-01    0.15090581E+00   -0.80731564E-02
    1    0    0    3    3   -0.13769965E+00   -0.34025476E+00   -0.39912378E-02
    1    0    0    4    3   -0.39842232E-01   -0.31153134E-01    0.27816873E+00
    1    0    0    5    3   -0.97188607E-03    0.50723010E-01    0.27436610E+00
    1    0    1    1    1   -0.10750288E+00    0.36436533E-01   -0.15065309E-01
    1    0    1    2    2   -0.59477747E-01    0.13090320E+00   -0.65706649E-01
    1    0    1    3    3    0.41798914E+00    0.29324669E+00    0.54732493E-02
    1    0    1    4    3   -0.40203160E-01    0.18473310E-02   -0.29713315E+00
    1    0    1    5    3    0.23492016E-01   -0.42297838E-01   -0.17299546E+00
    1    1    0    1    1   -0.52440227E-01    0.34774072E-03    0.28611162E-01
    1    1    0    2    2   -0.11178379E+00    0.12188534E+00    0.38849963E-01
    1    1    0    3    3    0.40207416E+00    0.22618765E+00    0.53483492E-01
    1    1    0    4    3    0.81709013E-01   -0.29348654E-01   -0.28183746E+00
    1    1    0    5    3    0.80672492E-01   -0.25051822E-01   -0.28837773E+00
    1    1    1    1    1   -0.44158849E-01   -0.42421494E-01    0.69107875E-01
    1    1    1    2    2   -0.14633819E+00    0.59873897E-01    0.55251988E-01
    1    1    1    3    3   -0.25479261E+00   -0.44960560E+00    0.29863368E-01
    1    1    1    4    3   -0.11356961E+00   -0.51106553E-01    0.28378115E+00
    1    1    1    5    3    0.96748343E-01    0.20004106E-01    0.29636465E+00
