    2    2    2
    5    3
Sr        Ti        O         
    0.30000000E-01    0.30000000E-01   -0.11313062E-01    0.17173270E-02    0.14354556E-02    0.00000000E+00
    0    0    0    1    1   -0.49282978E-01    0.11724228E+00    0.21873143E-02
    0    0    0    2    2    0.75459667E-02   -0.43742548E-02   -0.38034335E-01
    0    0    0    3    3    0.26213944E+00    0.15607932E+00   -0.77557656E-02
    0    0    0    4    3   -0.59641656E-01   -0.44251777E-01   -0.16161915E+00
    0    0    0    5    3    0.71148576E-01   -0.63736185E-01   -0.19989560E+00
    0    0    1    1    1    0.24415734E-01    0.21653774E-01   -0.56405056E-01
    0    0    1    2    2   -0.58523049E-01    0.96015799E-01   -0.39305220E-02
    0    0    1    3    3   -0.12715457E+00   -0.33351055E+00   -0.36448052E-01
    0    0    1    4    3   -0.61734797E-01   -0.19320743E-01    0.19640623E+00
    0    0    1    5    3    0.75293405E-01   -0.11436147E-01    0.34524056E+00
    0    1    0    1    1   -0.55104200E-01   -0.19854144E-02    0.34376599E-01
    0    1    0    2    2    0.40864582E-01    0.12453320E+00   -0.17499807E-01
    0    1    0    3    3   -0.21478684E+00   -0.30400923E+00    0.59683461E-01
    0    1    0    4    3    0.44241969E-01   -0.58252285E-01    0.12229497E+00
    0    1    0    5    3    0.47896442E-01   -0.92666076E-01    0.29243901E+00
    0    1    1    1    1   -0.73591554E-01    0.21892129E-01   -0.64269131E-01
    0    1    1    2    2   -0.15143352E+00    0.44191264E-01    0.68132248E-02
    0    1    1    3    3    0.30896271E+00    0.15594590E+00    0.46580366E-02
    0    1    1    4    3    0.77555985E-01   -0.20930906E-01   -0.19313508E+00
    0    1    1    5    3    0.16950649E-01   -0.57057189E-01   -0.17038937E+00
    1    0    0    1    1    0.43133488E-01    0.89880622E-01   -0.37355467E-01
    1    0    0    2    2   -0.41003402E-01    0.97542150E-01   -0.23328526E-01
    1    0    0    3    3   -0.25647443E+00   -0.26673555E+00   -0.41372844E-01
    1    0    0    4    3    0.18643970E-01   -0.18345337E-01    0.15851051E+00
    1    0    0    5    3    0.57593383E-01   -0.60488251E-01    0.17488633E+00
    1    0    1    1    1   -0.14080891E-01    0.73958476E-01    0.90301821E-01
    1    0    1    2    2   -0.73440493E-01    0.11322626E+00    0.47907288E-02
    1    0    1    3    3    0.29705019E+00    0.15148330E+00   -0.47518436E-01
    1    0    1    4    3    0.11024189E+00   -0.27588218E-01   -0.19760416E+00
    1    0    1    5    3    0.13955826E-01    0.19285233E-01   -0.24625719E+00
    1    1    0    1    1   -0.16424422E+00    0.12121289E-01   -0.30554287E-02
    1    1    0    2    2   -0.21813107E-01    0.13419611E+00    0.21432635E-01
    1    1    0    3    3    0.18270407E+00    0.82331187E-01    0.42350839E-01
    1    1    0    4    3   -0.71869618E-01   -0.25877374E-01   -0.15426804E+00
    1    1    0    5    3    0.75332199E-01    0.42126587E-03   -0.16745853E+00
    1    1    1    1    1   -0.19728935E-01    0.15049919E+00   -0.47734379E-01
    1    1    1    2    2   -0.12608934E+00    0.65257961E-01   -0.27048747E-02
    1    1    1    3    3   -0.17339434E+00   -0.22793333E+00    0.25335570E-01
    1    1    1    4    3   -0.22224593E-01   -0.94306433E-01    0.91283660E-01
    1    1    1    5    3    0.59946061E-01    0.50485414E-02    0.24504823E+00
