    2    2    2
    5    3
Sr        Ti        O         
    0.30000000E-01    0.30000000E-01   -0.21735407E-01    0.17983065E-02   -0.54556608E-03    0.00000000E+00
    0    0    0    1    1   -0.63535787E-01    0.35501649E-01    0.51418811E-01
    0    0    0    2    2   -0.12512449E+00    0.90023268E-01   -0.29945765E-01
    0    0    0    3    3    0.44217519E+00    0.24576190E+00   -0.44438281E-01
    0    0    0    4    3   -0.26213281E-01   -0.42999944E-01   -0.35508403E+00
    0    0    0    5    3    0.82519043E-01   -0.13979327E+00   -0.28222922E+00
    0    0    1    1    1   -0.98093181E-01   -0.25597516E-01   -0.33877552E-01
    0    0    1    2    2   -0.67122839E-01    0.95513679E-01   -0.45102573E-01
    0    0    1    3    3   -0.32022573E-01   -0.31710631E+00    0.21673704E-01
    0    0    1    4    3   -0.86975174E-01   -0.67947668E-01    0.29275965E+00
    0    0    1    5    3   -0.32642340E-01    0.80266270E-01    0.28131242E+00
    0    1    0    1    1    0.22617222E-01    0.28220174E-01    0.32010968E-01
    0    1    0    2    2   -0.15106948E+00    0.59940051E-01   -0.41013500E-02
    0    1    0    3    3   -0.25174490E+00   -0.31543003E+00    0.31363059E-01
    0    1    0    4    3   -0.42472867E-01   -0.10493526E+00    0.26498611E+00
    0    1    0    5    3    0.54661948E-01    0.88452127E-01    0.32850178E+00
    0    1    1    1    1   -0.73089167E-01   -0.17919538E-01    0.29397935E-01
    0    1    1    2    2   -0.10802280E+00    0.52788374E-01    0.34347190E-01
    0    1    1    3    3    0.39765093E+00    0.17013206E+00   -0.37193695E-01
    0    1    1    4    3    0.35812860E-01   -0.46373434E-01   -0.31217244E+00
    0    1    1    5    3    0.44881879E-01   -0.81596284E-01   -0.27313735E+00
    1    0    0    1    1   -0.34926788E-01    0.12209736E+00    0.39785341E-01
    1    0    0    2    2   -0.11041074E+00    0.93555023E-01   -0.25265017E-01
    1    0    0    3    3   -0.18928572E+00   -0.39466177E+00    0.34756259E-01
    1    0    0    4    3   -0.93165434E-01   -0.58652483E-01    0.21950645E+00
    1    0    0    5    3    0.45904991E-01   -0.33320100E-01    0.28264660E+00
    1    0    1    1    1   -0.59642103E-01    0.80973438E-01   -0.39138808E-01
    1    0    1    2    2   -0.11256738E+00    0.13288076E+00   -0.17229896E-02
    1    0    1    3    3    0.43451035E+00    0.14866049E+00   -0.33105225E-01
    1    0    1    4    3    0.59475877E-01   -0.47258423E-01   -0.25855546E+00
    1    0    1    5    3    0.22227949E-01   -0.94188753E-01   -0.24072975E+00
    1    1    0    1    1   -0.81035276E-01    0.37182846E-01    0.61574027E-01
    1    1    0    2    2   -0.15944100E+00    0.15315108E+00    0.23806207E-02
    1    1    0    3    3    0.38257627E+00    0.18566412E+00   -0.82664814E-02
    1    1    0    4    3    0.13109377E+00   -0.79055900E-01   -0.24693617E+00
    1    1    0    5    3    0.11942079E+00   -0.79770968E-01   -0.30461089E+00
    1    1    1    1    1    0.27458924E-01    0.27971540E-01   -0.17471344E-01
    1    1    1    2    2   -0.98810340E-01    0.19003960E+00    0.27862971E-01
    1    1    1    3    3   -0.15107449E+00   -0.31232112E+00    0.25411584E-01
    1    1    1    4    3   -0.75419418E-01   -0.18931057E-01    0.23561083E+00
    1    1    1    5    3    0.20919575E-01    0.15908403E+00    0.29577808E+00
