    2    2    2
    5    3
Sr        Ti        O         
    0.30000000E-01    0.30000000E-01   -0.40272438E-02    0.76725988E-03    0.41445012E-03    0.00000000E+00
    0    0    0    1    1   -0.16117844E+00    0.65507460E-01   -0.41074941E-01
    0    0    0    2    2   -0.10464563E+00    0.66926299E-01    0.20386245E-01
    0    0    0    3    3    0.27023880E+00    0.21897261E+00   -0.12246866E-01
    0    0    0    4    3   -0.77861113E-01   -0.12561103E+00   -0.24724020E+00
    0    0    0    5    3    0.69244994E-01   -0.34752735E-01   -0.21235068E+00
    0    0    1    1    1    0.48983615E-01    0.50130044E-01   -0.27557033E-01
    0    0    1    2    2   -0.16135819E+00    0.12748348E+00    0.12363050E-01
    0    0    1    3    3   -0.93869851E-01   -0.33309409E+00   -0.37350843E-02
    0    0    1    4    3    0.22232383E-01   -0.74723142E-02    0.26964075E+00
    0    0    1    5    3    0.20907958E-01    0.52185728E-01    0.15430324E+00
    0    1    0    1    1   -0.86962295E-01    0.13761095E+00    0.95330914E-01
    0    1    0    2    2   -0.77034879E-01    0.66902576E-01    0.30458329E-01
    0    1    0    3    3   -0.50361996E-01   -0.37051067E+00   -0.15713492E-01
    0    1    0    4    3    0.41716047E-01   -0.79699892E-01    0.20556980E+00
    0    1    0    5    3   -0.15900326E-01   -0.10110226E+00    0.27079688E+00
    0    1    1    1    1   -0.12790677E+00    0.56493506E-01   -0.14119014E-01
    0    1    1    2    2   -0.98756636E-01    0.92061403E-01    0.10605321E-01
    0    1    1    3    3    0.30652937E+00    0.17040107E+00    0.17416577E-01
    0    1    1    4    3    0.27212526E-01   -0.10605344E-01   -0.25134796E+00
    0    1    1    5    3    0.71820057E-01    0.73337184E-01   -0.16857498E+00
    1    0    0    1    1   -0.99500051E-02    0.86735401E-01   -0.11352986E+00
    1    0    0    2    2   -0.14032907E+00    0.68561985E-01    0.40118781E-01
    1    0    0    3    3   -0.12892310E+00   -0.26403861E+00    0.50045352E-01
    1    0    0    4    3    0.80093200E-02   -0.52537803E-01    0.26753544E+00
    1    0    0    5    3    0.53623349E-01   -0.78766213E-01    0.17724072E+00
    1    0    1    1    1   -0.35164657E-01    0.52550427E-01   -0.11545405E-01
    1    0    1    2    2   -0.14053881E+00    0.11901171E+00    0.35524361E-01
    1    0    1    3    3    0.32345001E+00    0.16302477E+00   -0.17673668E-01
    1    0    1    4    3   -0.25285929E-01   -0.20953919E-01   -0.33103883E+00
    1    0    1    5    3    0.83244810E-01    0.10786148E-01   -0.18606626E+00
    1    1    0    1    1   -0.29397616E-02   -0.56909839E-01    0.37637318E-01
    1    1    0    2    2   -0.11680068E+00    0.77249136E-01   -0.11569431E-02
    1    1    0    3    3    0.31019988E+00    0.16543525E+00   -0.19927748E-01
    1    1    0    4    3   -0.19050353E-02   -0.69283534E-01   -0.26308272E+00
    1    1    0    5    3    0.84514851E-01   -0.49795482E-01   -0.94452482E-01
    1    1    1    1    1    0.17093327E-01    0.11378927E+00   -0.65191000E-01
    1    1    1    2    2   -0.14381051E+00    0.10589550E+00   -0.19098942E-02
    1    1    1    3    3   -0.16035053E+00   -0.43334012E+00   -0.27560434E-01
    1    1    1    4    3    0.13453559E+00   -0.33922367E-01    0.21111527E+00
    1    1    1    5    3    0.68277324E-01   -0.18655706E-01    0.22100715E+00
