    2    2    2
    5    3
Sr        Ti        O         
    0.30000000E-01    0.30000000E-01   -0.20470870E-01    0.39361692E-02    0.36727714E-02    0.00000000E+00
    0    0    0    1    1   -0.89694029E-01    0.92877023E-01   -0.38920294E-01
    0    0    0    2    2   -0.11589171E+00    0.15221165E+00    0.32083583E-01
    0    0    0    3    3    0.35354212E+00    0.11290733E+00    0.22055984E-02
    0    0    0    4    3    0.23289446E-02   -0.64626290E-01   -0.16217676E+00
    0    0    0    5    3    0.68652753E-01    0.38514675E-01   -0.33572500E+00
    0    0    1    1    1   -0.10193413E+00    0.10322746E+00   -0.21197884E-01
    0    0    1    2    2   -0.17379560E+00    0.11020072E+00    0.53415173E-01
    0    0    1    3    3   -0.22778062E+00   -0.30888107E+00   -0.63158622E-02
    0    0    1    4    3    0.40121046E-01   -0.19407364E-01    0.18809304E+00
    0    0    1    5    3   -0.22980297E-01   -0.66914289E-01    0.23585823E+00
    0    1    0    1    1   -0.96542960E-01    0.59977165E-01   -0.79584057E-02
    0    1    0    2    2   -0.45701139E-01    0.16425775E+00   -0.21517463E-01
    0    1    0    3    3   -0.18918854E+00   -0.33156014E+00    0.20229968E-01
    0    1    0    4    3    0.13013325E+00   -0.41811487E-01    0.22331715E+00
    0    1    0    5    3    0.39162351E-01   -0.58366753E-01    0.33747627E+00
    0    1    1    1    1   -0.78755418E-01    0.32002475E-03    0.12098815E-02
    0    1    1    2    2   -0.13684438E+00    0.16267840E+00   -0.17548370E-02
    0    1    1    3    3    0.41118946E+00    0.16411767E+00    0.75612389E-02
    0    1    1    4    3    0.18483876E-02   -0.77542879E-01   -0.24958696E+00
    0    1    1    5    3    0.71784288E-01    0.23878991E-01   -0.16532209E+00
    1    0    0    1    1    0.12185196E-01    0.14767866E+00   -0.66742216E-01
    1    0    0    2    2   -0.86795869E-01    0.64581286E-01   -0.15352373E-01
    1    0    0    3    3   -0.31443878E+00   -0.34996284E+00   -0.20943624E-01
    1    0    0    4    3    0.97066487E-01   -0.23958532E-01    0.20663744E+00
    1    0    0    5    3    0.76177294E-01   -0.11425719E+00    0.25385880E+00
    1    0    1    1    1   -0.76942610E-01    0.41055331E-01   -0.15108669E+00
    1    0    1    2    2   -0.17957908E+00    0.21317664E-01   -0.43197528E-01
    1    0    1    3    3    0.40055368E+00    0.11929231E+00   -0.40307157E-01
    1    0    1    4    3   -0.86299066E-01   -0.46557545E-01   -0.31622424E+00
    1    0    1    5    3    0.45011339E-01    0.36674700E-01   -0.30195276E+00
    1    1    0    1    1    0.20711906E-03    0.57612288E-01    0.41027549E-01
    1    1    0    2    2   -0.29896983E-01    0.99614428E-01    0.29015558E-01
    1    1    0    3    3    0.40752417E+00    0.12499058E+00    0.38449324E-02
    1    1    0    4    3   -0.21979380E-01   -0.77311123E-01   -0.20365602E+00
    1    1    0    5    3    0.11716612E+00    0.93006917E-01   -0.23839152E+00
    1    1    1    1    1   -0.30648750E-01    0.63218264E-01    0.80022192E-01
    1    1    1    2    2   -0.96614962E-01    0.69126760E-01    0.76850660E-02
    1    1    1    3    3   -0.18911755E+00   -0.38609873E+00    0.61281335E-02
    1    1    1    4    3    0.29941282E-01   -0.97218234E-01    0.33313818E+00
    1    1    1    5    3    0.86826577E-01   -0.58863592E-01    0.34552170E+00
