    2    2    2
    5    3
Sr        Ti        O         
    0.30000000E-01    0.30000000E-01   -0.22487856E-01    0.69031946E-02    0.47229190E-02    0.00000000E+00
    0    0    0    1    1   -0.21507043E-01   -0.19197901E-01    0.17698891E-01
    0    0    0    2    2   -0.11044874E+00    0.16593538E+00    0.77312182E-03
    0    0    0    3    3    0.33279683E+00    0.22522172E+00   -0.76563902E-02
    0    0    0    4    3    0.58213152E-01   -0.56535709E-01   -0.22056932E+00
    0    0    0    5    3    0.28690840E-01    0.29497808E-01   -0.32038613E+00
    0    0    1    1    1    0.49105923E-01    0.10290346E+00   -0.31775028E-01
    0    0    1    2    2   -0.73515719E-01    0.12147685E+00   -0.34545527E-01
    0    0    1    3    3   -0.25790099E+00   -0.39984169E+00    0.30813281E-01
    0    0    1    4    3    0.13305943E+00   -0.68321313E-01    0.19233522E+00
    0    0    1    5    3    0.13121055E-01   -0.14024900E+00    0.34099242E+00
    0    1    0    1    1   -0.56828472E-01    0.11611019E+00   -0.92525820E-01
    0    1    0    2    2   -0.12786242E+00    0.17442914E+00   -0.52677065E-01
    0    1    0    3    3   -0.19759266E+00   -0.25634642E+00   -0.83982212E-02
    0    1    0    4    3    0.65707629E-01   -0.10562807E+00    0.20641714E+00
    0    1    0    5    3    0.10138531E+00    0.73949362E-02    0.24585626E+00
    0    1    1    1    1   -0.16637749E-01    0.50647329E-01   -0.54856889E-01
    0    1    1    2    2   -0.47842696E-01    0.12131377E+00   -0.66762017E-01
    0    1    1    3    3    0.29268630E+00    0.94906994E-01   -0.48403017E-01
    0    1    1    4    3   -0.11660907E+00   -0.11429175E+00   -0.30151323E+00
    0    1    1    5    3    0.62338057E-01   -0.50114462E-02   -0.33768036E+00
    1    0    0    1    1   -0.69318160E-01    0.89441436E-01   -0.82216036E-02
    1    0    0    2    2   -0.62063140E-01    0.34553616E-01    0.15399737E-01
    1    0    0    3    3   -0.29069074E+00   -0.34604268E+00    0.29342002E-01
    1    0    0    4    3    0.82532513E-01   -0.59295484E-01    0.32074570E+00
    1    0    0    5    3    0.64806718E-01   -0.13639505E+00    0.27821146E+00
    1    0    1    1    1   -0.31958146E-01    0.53627868E-01    0.44362556E-01
    1    0    1    2    2   -0.11716086E+00    0.10371259E+00    0.73736524E-01
    1    0    1    3    3    0.45945209E+00    0.21864305E+00    0.16757770E-01
    1    0    1    4    3   -0.10634411E-01   -0.10444181E+00   -0.16830197E+00
    1    0    1    5    3    0.13683791E-01    0.54984199E-01   -0.28654508E+00
    1    1    0    1    1   -0.74248875E-01    0.19747668E-02    0.67141614E-01
    1    1    0    2    2   -0.12018589E+00    0.62945809E-01    0.32748384E-01
    1    1    0    3    3    0.38214548E+00    0.14523923E+00    0.28705101E-01
    1    1    0    4    3   -0.34449730E-01   -0.18389416E-01   -0.28286988E+00
    1    1    0    5    3    0.34251630E-01    0.59927272E-01   -0.23692476E+00
    1    1    1    1    1   -0.48652361E-01    0.49481080E-01    0.40893793E-01
    1    1    1    2    2   -0.69278250E-01    0.15166658E+00    0.70234232E-01
    1    1    1    3    3   -0.26563808E+00   -0.43375637E+00    0.88155365E-02
    1    1    1    4    3    0.29567006E-01   -0.48075596E-01    0.27471215E+00
    1    1    1    5    3    0.17480443E-01    0.75784627E-01    0.22391943E+00
