    2    2    2
    5    3
Sr        Ti        O         
    0.00000000E+00    0.00000000E+00   -0.24131778E-02   -0.10366110E-02   -0.14966561E-02    0.00000000E+00
    0    0    0    1    1    0.33162474E-02   -0.80734933E-01    0.49915827E-01
    0    0    0    2    2    0.13008688E-01    0.23192531E-01    0.13175471E-01
    0    0    0    3    3   -0.35500352E-01   -0.20505595E+00   -0.12901473E-01
    0    0    0    4    3   -0.49139674E-01    0.15151022E-01    0.26780566E+00
    0    0    0    5    3   -0.19875646E-01    0.13798638E-01   -0.35440555E-01
    0    0    1    1    1   -0.15873789E-02    0.39724003E-02    0.16506944E-01
    0    0    1    2    2    0.40606843E-01   -0.14885989E-01    0.58111908E-01
    0    0    1    3    3   -0.11831916E+00    0.25046739E+00    0.96578482E-02
    0    0    1    4    3    0.11565041E+00   -0.29179868E-01   -0.18700231E+00
    0    0    1    5    3   -0.31423086E-01   -0.19032957E+00    0.65395854E-01
    0    1    0    1    1    0.52976547E-01    0.65463416E-01    0.17197362E-01
    0    1    0    2    2    0.49461071E-01   -0.28145297E-01    0.10444390E-01
    0    1    0    3    3    0.10056574E+00    0.23029598E+00   -0.18468955E-01
    0    1    0    4    3    0.84085308E-01   -0.12354290E-01   -0.24682309E+00
    0    1    0    5    3    0.24791603E-01   -0.13854455E+00   -0.14289385E+00
    0    1    1    1    1   -0.11670659E-01    0.21702725E-01    0.24938968E-01
    0    1    1    2    2    0.11650610E-01   -0.11792990E-02   -0.11378075E-01
    0    1    1    3    3   -0.65999281E-01   -0.21894103E+00   -0.52438610E-01
    0    1    1    4    3   -0.14171923E+00   -0.44316679E-02    0.18441160E+00
    0    1    1    5    3   -0.26397156E-01    0.16907918E+00    0.50302265E-01
    1    0    0    1    1    0.36081029E-01    0.30294064E-01    0.46049791E-01
    1    0    0    2    2    0.31025102E-01   -0.21416317E-02    0.21400707E-01
    1    0    0    3    3   -0.51753518E-01    0.25263676E+00    0.12467728E-02
    1    0    0    4    3    0.64676800E-01   -0.17768331E-01   -0.23452525E+00
    1    0    0    5    3    0.23399510E-02   -0.10016271E+00    0.31194432E-01
    1    0    1    1    1   -0.95044283E-01    0.27614745E-01   -0.10985935E+00
    1    0    1    2    2    0.88834109E-01    0.22814180E-01    0.17756874E-01
    1    0    1    3    3    0.45150791E-02   -0.26862653E+00    0.32077457E-01
    1    0    1    4    3   -0.13892734E+00    0.60138822E-01    0.32028096E+00
    1    0    1    5    3   -0.98010046E-02    0.14456717E+00   -0.14260594E+00
    1    1    0    1    1    0.92961137E-02    0.75424458E-02   -0.57922384E-01
    1    1    0    2    2    0.16359840E-01   -0.65603267E-02   -0.13729537E-01
    1    1    0    3    3   -0.20846039E-01   -0.23939608E+00   -0.16883494E-01
    1    1    0    4    3   -0.69920175E-01   -0.27346216E-01    0.24302228E+00
    1    1    0    5    3   -0.25362585E-01    0.22660207E-01    0.36993862E-02
    1    1    1    1    1    0.24535793E-01   -0.31519149E-01    0.11838739E+00
    1    1    1    2    2   -0.41259855E-01    0.36992635E-01    0.56522546E-03
    1    1    1    3    3    0.11725033E+00    0.25709152E+00   -0.12597903E-01
    1    1    1    4    3    0.85006794E-01    0.52794306E-01   -0.20912441E+00
    1    1    1    5    3   -0.21487586E-01   -0.90966692E-01   -0.98950199E-01
