    2    2    2
    5    3
Sr        Ti        O         
    0.00000000E+00    0.00000000E+00    0.22988946E-02   -0.85009721E-03   -0.60797624E-03    0.00000000E+00
    0    0    0    1    1   -0.47977089E-01   -0.15666777E-01   -0.40508428E-01
    0    0    0    2    2   -0.17859374E-01   -0.25437453E-01   -0.27854125E-02
    0    0    0    3    3    0.54157625E-01   -0.17154163E+00    0.18917281E-01
    0    0    0    4    3   -0.57051553E-01   -0.28675684E-02    0.25729008E+00
    0    0    0    5    3    0.23910382E-01    0.86475526E-01    0.17112761E-02
    0    0    1    1    1    0.52179720E-01    0.11923845E-01    0.10042187E+00
    0    0    1    2    2    0.10536608E-01    0.30958931E-01   -0.20929364E-01
    0    0    1    3    3   -0.60730482E-02    0.14170251E+00    0.46902857E-01
    0    0    1    4    3    0.84306022E-02    0.57056938E-03   -0.15263897E+00
    0    0    1    5    3    0.16600532E-01   -0.27980921E-01    0.14462646E+00
    0    1    0    1    1    0.22106369E-01   -0.23225748E-01    0.93589747E-01
    0    1    0    2    2    0.17286568E-01   -0.34588650E-01   -0.37915270E-01
    0    1    0    3    3   -0.18673327E+00    0.19542389E+00    0.26940335E-02
    0    1    0    4    3    0.12221454E+00   -0.13766050E-01   -0.20711406E+00
    0    1    0    5    3   -0.10688475E-01   -0.15257928E+00    0.61403690E-01
    0    1    1    1    1   -0.46237813E-03    0.71262141E-01   -0.28009731E-02
    0    1    1    2    2   -0.16738355E-01    0.44351438E-01   -0.20585367E-01
    0    1    1    3    3    0.19989200E-01   -0.18818505E+00   -0.11274902E-01
    0    1    1    4    3   -0.19194254E-01    0.13504384E-01    0.55442283E-01
    0    1    1    5    3   -0.11317108E-01    0.99339746E-02   -0.46117230E-01
    1    0    0    1    1   -0.39932035E-01    0.29599301E-01    0.24128083E-01
    1    0    0    2    2    0.39381821E-02   -0.31973381E-01    0.52415574E-01
    1    0    0    3    3    0.17613668E-01    0.18491789E+00   -0.12919473E-01
    1    0    0    4    3    0.11369479E+00   -0.64201428E-01   -0.15801747E+00
    1    0    0    5    3    0.25729344E-01   -0.36184376E-01   -0.50791270E-01
    1    0    1    1    1   -0.58832550E-02   -0.15673748E-01   -0.21762419E-01
    1    0    1    2    2    0.39658471E-01    0.24966922E-01    0.10430439E-01
    1    0    1    3    3    0.93338140E-01   -0.23147286E+00    0.18823187E-01
    1    0    1    4    3    0.58171532E-02   -0.12341813E-01    0.24508984E+00
    1    0    1    5    3   -0.15533327E-01    0.39769749E-01    0.53458729E-01
    1    1    0    1    1   -0.25961554E-01   -0.25582275E-01   -0.40989244E-01
    1    1    0    2    2    0.20833531E-01    0.63998520E-03   -0.12278878E-01
    1    1    0    3    3    0.11926415E+00   -0.21287477E+00   -0.52566817E-02
    1    1    0    4    3   -0.66080565E-01   -0.31204526E-01    0.21116085E+00
    1    1    0    5    3   -0.25362797E-01    0.12116882E+00   -0.20571560E+00
    1    1    1    1    1   -0.22396602E-01   -0.59177938E-01   -0.67244399E-01
    1    1    1    2    2   -0.31260822E-01    0.21405622E-01   -0.28892775E-01
    1    1    1    3    3   -0.81888750E-01    0.27339399E+00    0.33943268E-02
    1    1    1    4    3   -0.45335644E-01    0.22776083E-01   -0.24955000E+00
    1    1    1    5    3   -0.53569320E-01    0.51780688E-01   -0.58124164E-02
