    2    2    2
    5    3
Sr        Ti        O         
    0.00000000E+00    0.00000000E+00   -0.16358175E-02   -0.17873957E-02   -0.11889171E-02    0.00000000E+00
    0    0    0    1    1    0.24106330E-01    0.14485747E-01    0.17783761E-01
    0    0    0    2    2   -0.28553394E-01   -0.64791985E-01    0.51660132E-02
    0    0    0    3    3    0.71717436E-01   -0.25533896E+00   -0.92218336E-02
    0    0    0    4    3   -0.10360900E+00   -0.30167139E-01    0.33808579E+00
    0    0    0    5    3    0.17049131E-01    0.89056283E-01   -0.49897276E-01
    0    0    1    1    1    0.20040152E-01   -0.25383225E-01    0.47380671E-01
    0    0    1    2    2   -0.29357269E-01    0.37742795E-01    0.26531890E-01
    0    0    1    3    3   -0.69209398E-01    0.39057740E+00    0.63225856E-01
    0    0    1    4    3    0.11375294E+00   -0.14013257E-01   -0.36345217E+00
    0    0    1    5    3   -0.35104973E-01   -0.13217480E+00    0.24252776E-02
    0    1    0    1    1   -0.27526664E-01    0.79866223E-01   -0.70693798E-02
    0    1    0    2    2   -0.72997362E-02   -0.48354274E-01   -0.15783015E-01
    0    1    0    3    3   -0.13767056E-01    0.29443163E+00    0.22002595E-01
    0    1    0    4    3    0.11802536E+00   -0.25895714E-01   -0.37507885E+00
    0    1    0    5    3    0.30626083E-01   -0.14477047E+00    0.38528053E-01
    0    1    1    1    1    0.16224938E-01    0.21921397E-01    0.39751202E-01
    0    1    1    2    2    0.55637831E-01    0.87504231E-02   -0.23761482E-02
    0    1    1    3    3   -0.14277545E+00   -0.35018009E+00    0.92253806E-02
    0    1    1    4    3   -0.19987214E+00   -0.22949816E-01    0.29113527E+00
    0    1    1    5    3    0.75825347E-02    0.17929821E+00   -0.15630642E-01
    1    0    0    1    1    0.44101295E-01   -0.90843825E-02    0.13604959E-01
    1    0    0    2    2    0.22206695E-01    0.45072458E-01    0.45520625E-01
    1    0    0    3    3   -0.32728749E-01    0.42435505E+00    0.42318827E-02
    1    0    0    4    3    0.93062772E-01   -0.80914582E-02   -0.32271274E+00
    1    0    0    5    3   -0.32571280E-02   -0.17378001E+00    0.68418215E-01
    1    0    1    1    1    0.34058118E-01    0.16829958E-01   -0.54993732E-01
    1    0    1    2    2   -0.32542961E-01    0.65510863E-01   -0.13657218E-01
    1    0    1    3    3   -0.21338709E-01   -0.30783044E+00    0.20269730E-01
    1    0    1    4    3   -0.14486619E+00   -0.20496214E-02    0.34256678E+00
    1    0    1    5    3   -0.23060313E-01    0.11965274E+00   -0.10501232E+00
    1    1    0    1    1    0.80906279E-01    0.11985879E-01   -0.15815275E-02
    1    1    0    2    2    0.24463748E-01   -0.14913992E-01    0.40403504E-01
    1    1    0    3    3   -0.24999309E-01   -0.38381416E+00   -0.26425381E-01
    1    1    0    4    3   -0.88482625E-01   -0.35710276E-01    0.33603631E+00
    1    1    0    5    3    0.30081311E-01    0.67443404E-01    0.52204423E-01
    1    1    1    1    1    0.57750343E-01    0.16181391E-01   -0.93705112E-02
    1    1    1    2    2    0.49340017E-01    0.28353895E-01    0.59337658E-02
    1    1    1    3    3    0.22483257E-01    0.35949701E+00   -0.18680514E-01
    1    1    1    4    3    0.10663394E+00   -0.26710063E-01   -0.39412805E+00
    1    1    1    5    3   -0.11499445E-01   -0.19500863E+00   -0.45360652E-01
