    2    2    2
    5    3
Sr        Ti        O         
    0.00000000E+00    0.00000000E+00    0.25090570E-02   -0.59908260E-03    0.24414940E-02    0.00000000E+00
    0    0    0    1    1   -0.18954218E-01   -0.64352559E-01   -0.44758810E-01
    0    0    0    2    2    0.75803049E-01   -0.35146792E-01    0.80112732E-02
    0    0    0    3    3   -0.44104620E-01    0.15214054E-01    0.30663460E-01
    0    0    0    4    3   -0.10668655E+00    0.34296365E-01    0.53129690E-01
    0    0    0    5    3   -0.11118136E-02    0.65024501E-01   -0.30726794E-01
    0    0    1    1    1   -0.20442850E-01    0.29340228E-01   -0.42350153E-01
    0    0    1    2    2    0.28806489E-01   -0.17641808E-01    0.22288688E-01
    0    0    1    3    3   -0.14627434E+00    0.98322015E-01    0.10741689E-01
    0    0    1    4    3    0.23818066E-01    0.56496639E-01   -0.14964876E+00
    0    0    1    5    3   -0.42408333E-01    0.16569259E-01    0.96020809E-01
    0    1    0    1    1    0.83705302E-02   -0.95383297E-01    0.13940581E-01
    0    1    0    2    2   -0.17497217E-01   -0.67377656E-01   -0.46081035E-01
    0    1    0    3    3   -0.41901655E-01    0.20064735E+00   -0.37987864E-01
    0    1    0    4    3    0.66040937E-01    0.59013661E-02   -0.98679402E-01
    0    1    0    5    3    0.32291054E-01   -0.23422906E+00    0.84254024E-01
    0    1    1    1    1    0.10665469E-01   -0.62068017E-01    0.12014421E-01
    0    1    1    2    2    0.38551363E-01    0.12068013E-02   -0.37457743E-01
    0    1    1    3    3    0.60347056E-01   -0.69707436E-01    0.10775451E-01
    0    1    1    4    3   -0.38449886E-02    0.18409750E-01    0.71405014E-01
    0    1    1    5    3    0.12104071E-01    0.13125515E+00   -0.44372844E-01
    1    0    0    1    1    0.25079669E-02   -0.73063260E-01   -0.71358475E-01
    1    0    0    2    2    0.19367123E-01   -0.14189302E-01   -0.16215773E-02
    1    0    0    3    3   -0.81778288E-01    0.10870488E+00   -0.47098307E-02
    1    0    0    4    3    0.12079365E+00    0.25650152E-01   -0.65664799E-01
    1    0    0    5    3   -0.16472020E-01   -0.94111578E-01    0.70433578E-01
    1    0    1    1    1   -0.15869359E-01   -0.23468492E-01   -0.32795673E-01
    1    0    1    2    2    0.31753207E-01   -0.46710736E-01    0.23256493E-01
    1    0    1    3    3   -0.27904758E-01   -0.15080983E+00    0.83515202E-02
    1    0    1    4    3   -0.39401821E-02   -0.17919980E-01    0.16148805E+00
    1    0    1    5    3   -0.56076952E-01    0.10786567E+00   -0.80945631E-01
    1    1    0    1    1    0.20427539E-01   -0.63014573E-02   -0.68601929E-02
    1    1    0    2    2   -0.12971811E-02   -0.20672743E-01    0.16938047E-01
    1    1    0    3    3   -0.59234954E-02   -0.11976479E+00   -0.22948960E-01
    1    1    0    4    3   -0.10904509E-01    0.12422992E-01    0.10305574E+00
    1    1    0    5    3    0.23706214E-01    0.90502828E-01    0.17419122E-01
    1    1    1    1    1   -0.15217255E-01    0.10809660E+00    0.86828582E-01
    1    1    1    2    2    0.65959764E-01   -0.27120269E-01   -0.26153745E-01
    1    1    1    3    3   -0.38993045E-01    0.57025673E-01    0.24501113E-01
    1    1    1    4    3    0.60850175E-01    0.35129661E-02   -0.13822317E+00
    1    1    1    5    3    0.15439913E-01    0.53573818E-01    0.57828114E-01
