    2    2    2
    5    3
Sr        Ti        O         
    0.00000000E+00    0.00000000E+00   -0.28959966E-02    0.15058112E-02   -0.59549600E-02    0.00000000E+00
    0    0    0    1    1   -0.19926090E-01   -0.73480420E-02   -0.73880302E-01
    0    0    0    2    2   -0.35176238E-01   -0.35810393E-01   -0.64644548E-01
    0    0    0    3    3    0.11826805E-02   -0.35192326E+00    0.60561720E-03
    0    0    0    4    3   -0.59093126E-01   -0.42540933E-01    0.39302498E+00
    0    0    0    5    3   -0.16634445E-02    0.10636477E+00   -0.30325382E-01
    0    0    1    1    1    0.59497499E-03    0.35712449E-01   -0.17552747E-01
    0    0    1    2    2    0.87698272E-02   -0.11003408E-01   -0.83025486E-01
    0    0    1    3    3    0.14420815E-01    0.25490774E+00   -0.76240088E-02
    0    0    1    4    3    0.13387866E+00    0.33754565E-02   -0.34006666E+00
    0    0    1    5    3    0.22570601E-01   -0.12889770E+00   -0.29494183E-01
    0    1    0    1    1   -0.52952084E-02   -0.16715302E-01    0.72265720E-01
    0    1    0    2    2    0.48034005E-02   -0.75648437E-01    0.27254466E-01
    0    1    0    3    3   -0.31502962E-01    0.38868033E+00   -0.12787844E-01
    0    1    0    4    3    0.18890717E+00   -0.16556956E-01   -0.41720287E+00
    0    1    0    5    3   -0.14317653E-01   -0.10890140E+00    0.11005314E-02
    0    1    1    1    1   -0.97924850E-02    0.65905280E-01    0.67089470E-01
    0    1    1    2    2    0.79813310E-01   -0.38212365E-01    0.23635115E-02
    0    1    1    3    3   -0.12050016E+00   -0.41975669E+00   -0.11926594E-02
    0    1    1    4    3   -0.49588282E-01   -0.66664029E-02    0.37973502E+00
    0    1    1    5    3    0.98039139E-02    0.65399044E-01    0.58852247E-01
    1    0    0    1    1   -0.50376915E-01    0.37792651E-01   -0.16814204E-01
    1    0    0    2    2   -0.31906337E-01   -0.25229852E-01    0.72908685E-01
    1    0    0    3    3    0.46398057E-01    0.39209073E+00    0.22360341E-02
    1    0    0    4    3    0.50414298E-01    0.65596020E-01   -0.34709116E+00
    1    0    0    5    3    0.29485670E-01   -0.69660929E-01   -0.45787431E-01
    1    0    1    1    1    0.31334159E-01    0.95389721E-02   -0.25197302E-01
    1    0    1    2    2   -0.19769030E-01   -0.10394966E-02    0.76436495E-01
    1    0    1    3    3   -0.82003097E-01   -0.32138317E+00    0.21371052E-01
    1    0    1    4    3   -0.12466722E+00    0.16433829E-01    0.34175479E+00
    1    0    1    5    3    0.93835266E-02    0.13827269E+00    0.40372095E-02
    1    1    0    1    1    0.17285494E-01   -0.19586003E-01   -0.10090101E-01
    1    1    0    2    2    0.22039000E-01   -0.64060167E-02   -0.22025690E-01
    1    1    0    3    3    0.40819989E-01   -0.37208595E+00    0.53768536E-02
    1    1    0    4    3   -0.13993073E+00    0.32601875E-01    0.32832112E+00
    1    1    0    5    3    0.68626563E-02    0.16797209E+00    0.72256066E-01
    1    1    1    1    1   -0.53720070E-01    0.17052305E-01   -0.47775560E-01
    1    1    1    2    2    0.30627442E-01   -0.18018367E-01    0.23258021E-01
    1    1    1    3    3    0.73520709E-01    0.39175274E+00    0.42281518E-01
    1    1    1    4    3    0.48104562E-01    0.34780104E-02   -0.37469058E+00
    1    1    1    5    3   -0.21791874E-01   -0.99535903E-01   -0.25260687E-01
