    2    2    2
    5    3
Sr        Ti        O         
    0.00000000E+00    0.00000000E+00    0.15554695E-02   -0.65990868E-03    0.96064982E-03    0.00000000E+00
    0    0    0    1    1    0.60819427E-01   -0.48408549E-01    0.90035062E-01
    0    0    0    2    2    0.14218573E-01   -0.47309151E-01    0.12392136E-01
    0    0    0    3    3   -0.10602084E-02   -0.10329973E+00    0.26525659E-01
    0    0    0    4    3   -0.17483663E+00   -0.51269207E-01    0.67007655E-01
    0    0    0    5    3   -0.16776608E-01    0.10456133E+00   -0.15440056E-01
    0    0    1    1    1   -0.30412530E-01    0.70638604E-01   -0.35626244E-01
    0    0    1    2    2    0.53496694E-02    0.10420163E+00   -0.25908716E-02
    0    0    1    3    3   -0.52301769E-01    0.21972343E+00    0.82968041E-02
    0    0    1    4    3    0.66102488E-01    0.41308161E-01   -0.18775224E+00
    0    0    1    5    3    0.31840856E-01    0.10609278E+00    0.43398252E-01
    0    1    0    1    1   -0.12082230E-01   -0.29741170E-02    0.79783133E-01
    0    1    0    2    2    0.59220323E-02   -0.42844729E-01   -0.84112809E-02
    0    1    0    3    3   -0.13230191E+00    0.13096197E+00   -0.24688893E-01
    0    1    0    4    3    0.14362299E+00   -0.25090240E-01   -0.17270741E+00
    0    1    0    5    3   -0.14170605E-01   -0.10410580E+00    0.10580787E+00
    0    1    1    1    1   -0.66419590E-01   -0.54311971E-01   -0.30692291E-01
    0    1    1    2    2    0.26669739E-01    0.10472362E-01   -0.22075125E-01
    0    1    1    3    3   -0.12412062E-02   -0.12003704E+00   -0.55290038E-01
    0    1    1    4    3    0.15497267E-01   -0.11867470E-01    0.12727759E+00
    0    1    1    5    3    0.21617436E-01    0.77349329E-01   -0.97676852E-01
    1    0    0    1    1   -0.36062926E-02   -0.66438231E-01   -0.35882046E-01
    1    0    0    2    2   -0.47798076E-02   -0.25767801E-01    0.16993256E-01
    1    0    0    3    3   -0.56938011E-01    0.10722770E+00    0.17780174E-01
    1    0    0    4    3    0.11450522E+00   -0.10244732E-03   -0.12635446E+00
    1    0    0    5    3   -0.23197620E-01   -0.18558861E+00    0.60161820E-01
    1    0    1    1    1   -0.16168440E-01   -0.18646454E-01    0.51413867E-01
    1    0    1    2    2   -0.61059891E-02   -0.31568669E-01   -0.24811414E-02
    1    0    1    3    3   -0.23877977E-01   -0.16642036E+00   -0.20835415E-01
    1    0    1    4    3    0.10902492E-01   -0.10050140E-01    0.11768028E+00
    1    0    1    5    3    0.34078023E-01    0.80926123E-01    0.86458805E-01
    1    1    0    1    1    0.48229548E-01   -0.47188143E-01    0.36405864E-01
    1    1    0    2    2    0.72112309E-01   -0.26864257E-01   -0.53986203E-02
    1    1    0    3    3    0.35886417E-01   -0.33646006E-01    0.15375067E-01
    1    1    0    4    3   -0.62705537E-01   -0.59059260E-02    0.13125794E+00
    1    1    0    5    3   -0.18517539E-02    0.19034934E-01   -0.41908042E-01
    1    1    1    1    1   -0.26273315E-01    0.10839894E+00   -0.74604367E-01
    1    1    1    2    2    0.61359211E-01   -0.45082603E-01   -0.12285233E-01
    1    1    1    3    3   -0.12087063E+00    0.51979899E-01    0.13059215E-02
    1    1    1    4    3    0.63161814E-01    0.11699642E-01   -0.16286570E+00
    1    1    1    5    3    0.16083153E-01    0.30210826E-01    0.40209169E-01
