    2    2    2
    5    3
Sr        Ti        O         
    0.00000000E+00    0.00000000E+00   -0.33636631E-02    0.22624555E-02   -0.19969976E-02    0.00000000E+00
    0    0    0    1    1   -0.33413433E-01    0.95726671E-01    0.47392295E-01
    0    0    0    2    2   -0.28267517E-01   -0.32176206E-01   -0.17292629E-01
    0    0    0    3    3    0.13108275E+00   -0.38751935E+00   -0.24436712E-01
    0    0    0    4    3   -0.10078469E+00   -0.77575434E-01    0.30331388E+00
    0    0    0    5    3   -0.12774227E-01    0.15201347E+00   -0.11172562E+00
    0    0    1    1    1    0.26575831E-01   -0.70518265E-01    0.53349212E-01
    0    0    1    2    2    0.45989127E-01   -0.37668969E-01   -0.13897106E-01
    0    0    1    3    3   -0.12926452E+00    0.24566722E+00    0.21929577E-01
    0    0    1    4    3    0.10518564E+00   -0.46540798E-01   -0.38470289E+00
    0    0    1    5    3   -0.25249069E-01   -0.12067243E+00    0.38364022E-01
    0    1    0    1    1   -0.49910847E-03    0.29994350E-01   -0.15670268E-01
    0    1    0    2    2    0.38598467E-01   -0.40437899E-01   -0.58474574E-01
    0    1    0    3    3    0.33748230E-01    0.33476827E+00    0.66626623E-03
    0    1    0    4    3    0.90603592E-01   -0.71815302E-01   -0.30209664E+00
    0    1    0    5    3    0.31926452E-01   -0.20410816E+00   -0.17323329E+00
    0    1    1    1    1    0.14368054E+00   -0.52510523E-01    0.56888725E-01
    0    1    1    2    2    0.46579302E-01    0.17415601E-02   -0.33972352E-01
    0    1    1    3    3   -0.60526417E-01   -0.32323235E+00   -0.62940316E-02
    0    1    1    4    3   -0.14112451E+00   -0.74093410E-02    0.33867015E+00
    0    1    1    5    3    0.14333936E-02    0.23455596E+00   -0.87918055E-02
    1    0    0    1    1   -0.25999357E-01    0.25643895E-01    0.43777784E-01
    1    0    0    2    2   -0.42941553E-01    0.20559105E-01    0.74238675E-01
    1    0    0    3    3   -0.99849374E-01    0.38396052E+00    0.14036591E-01
    1    0    0    4    3    0.66064311E-01   -0.98319345E-02   -0.34943893E+00
    1    0    0    5    3   -0.73232121E-02   -0.82865573E-01    0.88398181E-01
    1    0    1    1    1    0.63869863E-02    0.23773751E-01    0.27131581E-01
    1    0    1    2    2   -0.17800215E-01    0.57454772E-01    0.30732474E-01
    1    0    1    3    3    0.56863761E-01   -0.30758376E+00   -0.18565310E-01
    1    0    1    4    3   -0.18579774E+00    0.26508356E-02    0.33006835E+00
    1    0    1    5    3   -0.20764909E-01    0.12963800E+00   -0.18337920E+00
    1    1    0    1    1    0.20520919E-02    0.36453922E-02    0.43072842E-01
    1    1    0    2    2    0.61869380E-01   -0.19182445E-01    0.43512939E-01
    1    1    0    3    3   -0.40102748E-01   -0.34187325E+00    0.98902025E-02
    1    1    0    4    3   -0.14257513E+00   -0.15864412E-01    0.29981976E+00
    1    1    0    5    3    0.89512574E-02    0.64809485E-01    0.26611260E-01
    1    1    1    1    1    0.23502842E-01    0.87557040E-01   -0.51447949E-01
    1    1    1    2    2    0.61404335E-01    0.43783321E-01    0.87450248E-01
    1    1    1    3    3    0.12826767E-01    0.39463302E+00    0.53381618E-01
    1    1    1    4    3    0.11502971E+00   -0.11542132E-01   -0.25696445E+00
    1    1    1    5    3    0.47029519E-02   -0.71648095E-01   -0.22312870E-01
