    2    2    2
    5    3
Sr        Ti        O         
   -0.30000000E-01   -0.30000000E-01    0.16422604E-01    0.74263115E-03   -0.34968439E-02    0.00000000E+00
    0    0    0    1    1   -0.22148179E-01    0.76968510E-02    0.76465171E-02
    0    0    0    2    2    0.18048751E-01   -0.71530763E-02    0.46950174E-01
    0    0    0    3    3   -0.12697626E+00    0.65750813E-02    0.16729210E-01
    0    0    0    4    3    0.37241834E-01   -0.24006838E-01    0.58571955E-01
    0    0    0    5    3    0.14215916E-01   -0.47095641E-01    0.11670142E+00
    0    0    1    1    1    0.76135885E-02    0.17413142E-01    0.28706956E-01
    0    0    1    2    2   -0.11362374E-01    0.18879636E-01    0.32143415E-01
    0    0    1    3    3    0.12520512E+00   -0.27132597E-01    0.16980468E-01
    0    0    1    4    3   -0.31093398E+00    0.18583036E-02    0.69253812E-01
    0    0    1    5    3    0.30526008E-01    0.35381304E+00   -0.18586686E+00
    0    1    0    1    1    0.17911918E-01   -0.14869804E-01    0.20780232E-01
    0    1    0    2    2   -0.49363526E-01   -0.54386191E-01    0.37678251E-01
    0    1    0    3    3    0.60070072E-01   -0.28608506E-01   -0.24591078E-03
    0    1    0    4    3   -0.93365705E-01   -0.32033592E-01    0.29195937E-01
    0    1    0    5    3   -0.83624961E-02    0.13810003E+00   -0.63097543E-01
    0    1    1    1    1   -0.42298626E-01    0.17570682E-01   -0.50280073E-01
    0    1    1    2    2   -0.41915596E-02    0.12429801E-01   -0.20625209E-01
    0    1    1    3    3   -0.72959231E-01   -0.43699639E-01    0.15475888E-01
    0    1    1    4    3    0.37103705E+00   -0.10853602E-01   -0.11610937E-01
    0    1    1    5    3    0.42057768E-04   -0.32984454E+00   -0.27288170E-01
    1    0    0    1    1   -0.19087633E-01    0.26594205E-01    0.43203184E-01
    1    0    0    2    2    0.57433363E-01   -0.20522394E-01   -0.24627067E-01
    1    0    0    3    3    0.18575128E+00   -0.51780127E-01   -0.23044117E-01
    1    0    0    4    3   -0.13769760E+00    0.49286883E-02    0.93302426E-01
    1    0    0    5    3    0.19285056E-01    0.12822144E+00   -0.23208239E+00
    1    0    1    1    1   -0.28726394E-01   -0.47402393E-01    0.41128035E-01
    1    0    1    2    2   -0.91050854E-02    0.82812234E-02   -0.40376619E-02
    1    0    1    3    3   -0.11616235E+00    0.48807865E-01    0.13698939E-01
    1    0    1    4    3    0.38488001E+00   -0.96095922E-02   -0.72633236E-01
    1    0    1    5    3    0.40713361E-01   -0.38028563E+00    0.96735735E-01
    1    1    0    1    1   -0.21991258E-01   -0.12025924E-01    0.62163398E-01
    1    1    0    2    2   -0.19435769E-01    0.60001449E-02   -0.44639287E-01
    1    1    0    3    3   -0.48692195E-01    0.10030348E+00   -0.17812657E-01
    1    1    0    4    3    0.85656492E-01    0.14719265E-01   -0.11236301E+00
    1    1    0    5    3   -0.10134248E-01   -0.83031120E-01    0.68884420E-01
    1    1    1    1    1   -0.39435019E-01   -0.61431292E-02    0.42102475E-01
    1    1    1    2    2   -0.40251132E-02   -0.25638943E-02   -0.43517697E-01
    1    1    1    3    3    0.32601066E-01   -0.78055478E-01   -0.10101789E-01
    1    1    1    4    3   -0.28970917E+00    0.18580062E-01    0.11323991E+00
    1    1    1    5    3   -0.20691709E-02    0.38033077E+00   -0.12739913E+00
