    2    2    2
    5    3
Sr        Ti        O         
   -0.30000000E-01   -0.30000000E-01    0.20735750E-01   -0.69186832E-03    0.10304739E-02    0.00000000E+00
    0    0    0    1    1    0.56224557E-01    0.15216029E-01   -0.30937670E-01
    0    0    0    2    2    0.14887839E-02    0.26522071E-01    0.39484601E-01
    0    0    0    3    3   -0.83742415E-01   -0.36155663E-01    0.25847546E-01
    0    0    0    4    3    0.51994747E+00    0.93261576E-02   -0.83274396E-01
    0    0    0    5    3   -0.41320144E-02   -0.49604776E+00    0.34184924E-01
    0    0    1    1    1    0.36635228E-01   -0.80202893E-02    0.63054075E-02
    0    0    1    2    2   -0.28779512E-01    0.49921598E-02    0.21587626E-01
    0    0    1    3    3   -0.38088127E-02    0.14528613E-01    0.24430325E-01
    0    0    1    4    3   -0.65226907E+00   -0.35065255E-01   -0.11001136E-01
    0    0    1    5    3   -0.53422636E-02    0.58135317E+00   -0.17641961E-01
    0    1    0    1    1    0.68830756E-02   -0.39257421E-01    0.59847826E-01
    0    1    0    2    2    0.46628575E-02    0.21326153E-01   -0.69250986E-01
    0    1    0    3    3    0.60040098E-01   -0.88719720E-01   -0.14349458E-01
    0    1    0    4    3   -0.56761004E+00    0.44763186E-02   -0.38837481E-01
    0    1    0    5    3    0.78690115E-02    0.61723317E+00   -0.87046773E-01
    0    1    1    1    1    0.11711991E-01   -0.75666442E-02   -0.28938687E-02
    0    1    1    2    2    0.16134998E-01   -0.25983157E-01   -0.25467338E-01
    0    1    1    3    3   -0.70549486E-01    0.65199826E-03   -0.29431344E-01
    0    1    1    4    3    0.57038777E+00   -0.19369561E-01   -0.22263764E-01
    0    1    1    5    3    0.21191087E-01   -0.64465075E+00    0.97808597E-01
    1    0    0    1    1   -0.24080208E-01    0.51689580E-02   -0.14010749E-01
    1    0    0    2    2    0.29732077E-01    0.92951759E-02    0.34686696E-01
    1    0    0    3    3    0.86652333E-02   -0.66004405E-02    0.97275822E-02
    1    0    0    4    3   -0.53118811E+00    0.16739635E-01   -0.17259567E-01
    1    0    0    5    3   -0.15039083E-01    0.58910254E+00   -0.13135604E-01
    1    0    1    1    1   -0.32302849E-01   -0.67410276E-02   -0.21590872E-01
    1    0    1    2    2   -0.20135523E-01   -0.50431775E-01    0.13205522E-01
    1    0    1    3    3   -0.37482377E-01   -0.59332174E-01    0.26753865E-01
    1    0    1    4    3    0.62291115E+00   -0.32942792E-02    0.38939403E-01
    1    0    1    5    3   -0.31785550E-01   -0.58292702E+00    0.86003009E-01
    1    1    0    1    1    0.64807513E-01   -0.16815368E-02    0.49646266E-02
    1    1    0    2    2    0.43535978E-02    0.24903312E-01   -0.22585190E-01
    1    1    0    3    3   -0.92375407E-01   -0.18181838E-01    0.16430523E-01
    1    1    0    4    3    0.56187214E+00    0.48447442E-02    0.61189437E-01
    1    1    0    5    3   -0.35133327E-02   -0.49952060E+00    0.47830702E-01
    1    1    1    1    1    0.51433249E-01    0.51385342E-01   -0.85689846E-02
    1    1    1    2    2    0.25828768E-01   -0.40508013E-01    0.46098374E-03
    1    1    1    3    3    0.80717179E-01    0.10483303E+00   -0.92364136E-02
    1    1    1    4    3   -0.57082992E+00   -0.12567722E-01   -0.45309544E-01
    1    1    1    5    3    0.11468140E-01    0.58072407E+00   -0.65596102E-01
