    2    2    2
    5    3
Sr        Ti        O         
   -0.30000000E-01   -0.30000000E-01    0.48102943E-02   -0.12530640E-02    0.21343723E-03    0.00000000E+00
    0    0    0    1    1    0.40187263E-01    0.33251956E-01    0.18218501E-02
    0    0    0    2    2    0.56942917E-02    0.32277392E-01    0.32637263E-01
    0    0    0    3    3   -0.94265516E-02    0.16208005E-01   -0.20078653E-01
    0    0    0    4    3   -0.49695605E-01   -0.13029358E-01   -0.71242546E-01
    0    0    0    5    3    0.21858166E-01    0.55717131E-01    0.60502047E-01
    0    0    1    1    1   -0.10137006E-01    0.12289903E-01    0.13835837E-01
    0    0    1    2    2   -0.10776297E-01    0.55607885E-02    0.49915539E-01
    0    0    1    3    3    0.73880757E-02   -0.78934108E-02   -0.60648202E-02
    0    0    1    4    3   -0.36655351E-01    0.14235553E-01   -0.35403945E-01
    0    0    1    5    3    0.90013913E-02    0.46301780E-01   -0.62305651E-01
    0    1    0    1    1   -0.36772863E-02    0.63483864E-01   -0.42574481E-01
    0    1    0    2    2   -0.14487818E-01    0.23829689E-01    0.42298048E-01
    0    1    0    3    3   -0.87380115E-03   -0.99297207E-02   -0.20201047E-01
    0    1    0    4    3   -0.36106916E-01    0.11104755E-02   -0.47866270E-01
    0    1    0    5    3    0.14878410E-01   -0.45548868E-01    0.64262586E-01
    0    1    1    1    1   -0.43885412E-01    0.49392762E-02   -0.29561964E-01
    0    1    1    2    2    0.12317478E-01   -0.31833711E-01    0.39293350E-01
    0    1    1    3    3    0.48574579E-02   -0.32257413E-01   -0.18258661E-01
    0    1    1    4    3    0.91922327E-01    0.66701494E-02   -0.17644955E-01
    0    1    1    5    3    0.29161726E-01   -0.61893732E-01    0.10095312E-02
    1    0    0    1    1   -0.17490269E-01    0.17294485E-01    0.18291861E-01
    1    0    0    2    2   -0.66837109E-02    0.75452520E-02    0.40205300E-01
    1    0    0    3    3    0.52005650E-01   -0.51627205E-02    0.11503865E-01
    1    0    0    4    3    0.29341721E-01    0.17136509E-01    0.34929930E-01
    1    0    0    5    3    0.50309535E-02   -0.81364705E-01   -0.75067459E-01
    1    0    1    1    1   -0.68333897E-01   -0.67208040E-01    0.33164603E-01
    1    0    1    2    2   -0.39736322E-02   -0.15594254E-01    0.44376443E-02
    1    0    1    3    3   -0.53215934E-01    0.36476906E-01   -0.28444484E-01
    1    0    1    4    3    0.25670598E-01   -0.98049605E-02   -0.83262768E-01
    1    0    1    5    3    0.26257717E-01   -0.14449164E-01   -0.24104356E-01
    1    1    0    1    1   -0.46246785E-02   -0.49489120E-01    0.21921904E-01
    1    1    0    2    2    0.10701371E-01    0.33009281E-02    0.37910469E-01
    1    1    0    3    3    0.43025194E-01    0.38829881E-01    0.58957581E-02
    1    1    0    4    3   -0.10442824E+00    0.87574002E-02    0.98763289E-02
    1    1    0    5    3    0.40708708E-02    0.84201138E-01    0.27225618E-02
    1    1    1    1    1    0.45348642E-01   -0.62517175E-01    0.30821478E-01
    1    1    1    2    2    0.66342347E-02   -0.21131811E-01    0.15547659E-01
    1    1    1    3    3    0.14096764E-01   -0.34099626E-01    0.33918666E-01
    1    1    1    4    3   -0.46896021E-01   -0.16260456E-01   -0.33553179E-02
    1    1    1    5    3    0.21918125E-01    0.50049784E-01   -0.21286702E-01
