    2    2    2
    5    3
Sr        Ti        O         
   -0.30000000E-01   -0.30000000E-01    0.21179119E-01    0.98652523E-03   -0.30239390E-02    0.00000000E+00
    0    0    0    1    1    0.11026672E-02   -0.92827736E-02    0.11253621E-01
    0    0    0    2    2   -0.39871301E-01    0.25432546E-01   -0.17311133E-02
    0    0    0    3    3   -0.11774334E-01    0.39238419E-01   -0.12028586E-01
    0    0    0    4    3    0.54684126E+00    0.18623376E-01    0.15120268E-01
    0    0    0    5    3   -0.12324804E-03   -0.36615065E+00    0.70707872E-01
    0    0    1    1    1   -0.75192640E-01   -0.40550132E-03   -0.36845528E-01
    0    0    1    2    2    0.44017420E-02   -0.34775954E-01   -0.28068337E-02
    0    0    1    3    3    0.50704521E-01    0.53098019E-02    0.18599305E-02
    0    0    1    4    3   -0.58983024E+00   -0.29847375E-01   -0.80508335E-03
    0    0    1    5    3   -0.15769777E-01    0.58868414E+00   -0.35310619E-01
    0    1    0    1    1    0.56010013E-01    0.18553846E-01   -0.24093294E-01
    0    1    0    2    2    0.33919696E-01   -0.33925341E-02    0.45826451E-02
    0    1    0    3    3    0.63624245E-01    0.13227091E-01    0.39294584E-02
    0    1    0    4    3   -0.56967604E+00    0.75610522E-02   -0.41421052E-01
    0    1    0    5    3   -0.19273722E-02    0.57732416E+00   -0.11277838E+00
    0    1    1    1    1    0.10911857E-01   -0.32980744E-01   -0.34054267E-01
    0    1    1    2    2    0.30574228E-01   -0.39216605E-01    0.11806629E-01
    0    1    1    3    3   -0.10236134E+00   -0.51424219E-01   -0.95717549E-02
    0    1    1    4    3    0.62584893E+00    0.76986407E-02   -0.13988634E-01
    0    1    1    5    3    0.10141012E-01   -0.64899752E+00    0.32386969E-01
    1    0    0    1    1   -0.66821506E-02   -0.23569671E-02    0.39457732E-02
    1    0    0    2    2   -0.23283122E-01   -0.51704178E-03    0.53514754E-02
    1    0    0    3    3    0.41222870E-01   -0.36887188E-01    0.68564619E-01
    1    0    0    4    3   -0.51445033E+00    0.18808746E-01    0.28375808E-01
    1    0    0    5    3    0.10143508E-03    0.55797274E+00   -0.12519210E-01
    1    0    1    1    1   -0.17181739E-01    0.70048614E-01    0.36878922E-02
    1    0    1    2    2   -0.29626031E-01   -0.49699703E-01    0.90314384E-02
    1    0    1    3    3   -0.74679866E-01    0.12649996E-01    0.51417677E-01
    1    0    1    4    3    0.62967053E+00   -0.39837848E-01   -0.59817907E-02
    1    0    1    5    3   -0.20709066E-01   -0.66771650E+00    0.11408079E+00
    1    1    0    1    1    0.21339066E-01   -0.89222733E-03    0.11895160E-01
    1    1    0    2    2   -0.10649337E-01   -0.50639109E-03   -0.49946091E-01
    1    1    0    3    3   -0.43477193E-01    0.20290776E-01    0.22203798E-02
    1    1    0    4    3    0.53716454E+00    0.37921497E-01   -0.38057172E-01
    1    1    0    5    3   -0.26108242E-02   -0.52420446E+00    0.35791480E-01
    1    1    1    1    1   -0.66369075E-03    0.14025862E-01    0.29696264E-02
    1    1    1    2    2    0.31966809E-01   -0.52041919E-01   -0.32787362E-01
    1    1    1    3    3    0.46259814E-01    0.39783692E-01   -0.16559613E-01
    1    1    1    4    3   -0.61528735E+00   -0.68026544E-01    0.34358323E-01
    1    1    1    5    3    0.24021754E-01    0.58600566E+00   -0.42051459E-01
