    2    2    2
    5    3
Sr        Ti        O         
   -0.30000000E-01   -0.30000000E-01    0.18260269E-01   -0.31093037E-03   -0.15771774E-02    0.00000000E+00
    0    0    0    1    1    0.17763890E-02   -0.73255756E-02   -0.19391343E-01
    0    0    0    2    2    0.33023980E-01   -0.22767548E-01    0.32941901E-01
    0    0    0    3    3   -0.11881654E+00    0.24235397E-01    0.72495134E-02
    0    0    0    4    3    0.16984798E+00   -0.49954605E-02   -0.47588329E-01
    0    0    0    5    3   -0.59027192E-02   -0.69865599E-01    0.14923027E+00
    0    0    1    1    1    0.17475635E-01    0.45033102E-02    0.11408684E-01
    0    0    1    2    2   -0.42660018E-02   -0.14348624E-01   -0.30694883E-02
    0    0    1    3    3    0.93814659E-01   -0.26880783E-01   -0.57300790E-02
    0    0    1    4    3   -0.30923767E+00   -0.15497693E-01    0.11046751E+00
    0    0    1    5    3   -0.97804157E-03    0.39050325E+00   -0.14352447E+00
    0    1    0    1    1    0.25622571E-01   -0.12665044E+00   -0.63068185E-02
    0    1    0    2    2   -0.22729512E-01   -0.10413794E-01   -0.94766247E-02
    0    1    0    3    3    0.46140638E-01   -0.10242974E+00    0.11036105E-01
    0    1    0    4    3   -0.28021762E+00   -0.40756356E-02    0.61809476E-01
    0    1    0    5    3   -0.15493814E-01    0.28228740E+00   -0.42985348E-01
    0    1    1    1    1   -0.64273239E-01    0.24116520E-01   -0.32627067E-01
    0    1    1    2    2   -0.33306004E-01   -0.22332158E-01    0.38165895E-02
    0    1    1    3    3   -0.85066429E-01    0.69195189E-01    0.26460343E-01
    0    1    1    4    3    0.40621719E+00   -0.53067817E-01   -0.50745616E-01
    0    1    1    5    3    0.18929279E-01   -0.42226290E+00    0.60656427E-01
    1    0    0    1    1   -0.19176563E-01   -0.11791975E-01   -0.85518610E-01
    1    0    0    2    2    0.36073405E-01    0.36260585E-01    0.36683042E-01
    1    0    0    3    3    0.10770509E+00   -0.13876305E+00   -0.23832975E-01
    1    0    0    4    3   -0.22253271E+00    0.52076389E-01    0.16050898E+00
    1    0    0    5    3    0.27542770E-02    0.22912520E+00   -0.10583460E+00
    1    0    1    1    1    0.22453511E-01    0.81998136E-02    0.33491786E-02
    1    0    1    2    2    0.40710155E-02   -0.35773630E-01    0.18994383E-01
    1    0    1    3    3   -0.96151903E-01    0.12965331E+00    0.15054766E-01
    1    0    1    4    3    0.50785349E+00   -0.61029786E-02   -0.11059795E+00
    1    0    1    5    3   -0.18201669E-02   -0.44006670E+00    0.34324631E-01
    1    1    0    1    1   -0.74824993E-01    0.22468829E-01    0.38285978E-01
    1    1    0    2    2    0.90604297E-02    0.29998465E-01   -0.74685205E-01
    1    1    0    3    3   -0.43575501E-01    0.11432520E+00   -0.82726094E-02
    1    1    0    4    3    0.14429456E+00    0.42537590E-01   -0.10620912E+00
    1    1    0    5    3   -0.29797554E-01   -0.19995630E+00    0.85350906E-01
    1    1    1    1    1   -0.18015590E-01   -0.24586071E-01   -0.10708867E-01
    1    1    1    2    2    0.14524515E-01   -0.27530295E-01   -0.68500249E-01
    1    1    1    3    3    0.11262098E+00   -0.99152914E-01   -0.25836801E-01
    1    1    1    4    3   -0.34908149E+00   -0.15065376E-01    0.16859001E+00
    1    1    1    5    3    0.21004478E-01    0.44221661E+00   -0.54776521E-01
