    2    2    2
    5    3
Sr        Ti        O         
    0.30000000E-01    0.30000000E-01   -0.15327867E-01   -0.70093364E-02    0.61344670E-03    0.00000000E+00
    0    0    0    1    1   -0.93561754E-01    0.11626893E+00   -0.31382163E-01
    0    0    0    2    2   -0.17014989E+00    0.12238554E+00    0.37972288E-01
    0    0    0    3    3    0.13705145E+00   -0.14251216E+00   -0.51062144E-01
    0    0    0    4    3    0.29892951E-01   -0.18050024E-01   -0.33008276E-01
    0    0    0    5    3    0.52316892E-01    0.13536232E-01   -0.12417095E+00
    0    0    1    1    1   -0.11046087E+00    0.18749378E-01    0.52618360E-02
    0    0    1    2    2   -0.12405919E+00    0.10709584E+00   -0.21547024E-01
    0    0    1    3    3    0.42820593E-01   -0.18824603E+00    0.30481274E-01
    0    0    1    4    3    0.50847540E-01   -0.60527537E-01    0.10416337E+00
    0    0    1    5    3    0.89553591E-01   -0.54142836E-01   -0.36677255E-01
    0    1    0    1    1   -0.45575856E-01    0.11197405E-01   -0.38508202E-01
    0    1    0    2    2   -0.13084080E+00    0.11629808E+00   -0.45509355E-01
    0    1    0    3    3    0.14563261E+00   -0.12632119E+00   -0.14483961E-01
    0    1    0    4    3   -0.10079019E+00   -0.68052432E-01   -0.51185471E-01
    0    1    0    5    3    0.35726429E-01    0.57505644E-02   -0.39130458E-01
    0    1    1    1    1   -0.70608213E-01    0.40318296E-01    0.95464314E-01
    0    1    1    2    2   -0.52656462E-01    0.10920409E+00   -0.12393544E-01
    0    1    1    3    3    0.31558506E-01   -0.16024682E+00   -0.29560086E-01
    0    1    1    4    3    0.10691203E+00   -0.58736800E-01    0.34860123E-01
    0    1    1    5    3    0.57036190E-01    0.21546059E-01    0.72234285E-01
    1    0    0    1    1   -0.96846783E-01    0.17652497E+00    0.81638585E-01
    1    0    0    2    2   -0.15756793E+00    0.13210650E+00   -0.34548645E-01
    1    0    0    3    3    0.45777095E-01   -0.99235535E-02   -0.25992958E-01
    1    0    0    4    3   -0.32911631E-01   -0.12106011E-01   -0.17115734E-01
    1    0    0    5    3    0.69897873E-01   -0.18473395E-02    0.26630617E-01
    1    0    1    1    1   -0.84409505E-01    0.67461700E-01    0.56597556E-01
    1    0    1    2    2   -0.12470904E+00    0.83522621E-01   -0.17908639E-01
    1    0    1    3    3    0.85733823E-01   -0.23227097E+00    0.22505982E-01
    1    0    1    4    3    0.94600338E-01   -0.55016368E-02    0.12384554E+00
    1    0    1    5    3    0.75233238E-01    0.18545619E-02   -0.61891894E-01
    1    1    0    1    1   -0.83829732E-01    0.69921830E-01   -0.50864171E-01
    1    1    0    2    2   -0.10689591E+00    0.10179723E+00    0.40769603E-01
    1    1    0    3    3    0.10138086E+00   -0.22185712E+00    0.14927154E-02
    1    1    0    4    3    0.81413192E-01   -0.68162179E-01    0.16805363E+00
    1    1    0    5    3    0.66563509E-01   -0.90862201E-01    0.51166614E-02
    1    1    1    1    1   -0.87591889E-02    0.49949098E-01    0.50992095E-01
    1    1    1    2    2   -0.10441917E+00    0.13897078E+00   -0.67205843E-02
    1    1    1    3    3    0.16527548E+00    0.67775968E-01   -0.33322334E-01
    1    1    1    4    3    0.73025166E-01   -0.73796446E-01   -0.98574640E-01
    1    1    1    5    3    0.60802765E-01    0.20927626E-01   -0.82521988E-01
