    2    2    2
    5    3
Sr        Ti        O         
    0.30000000E-01    0.30000000E-01   -0.20154680E-01   -0.48603470E-02   -0.33558014E-02    0.00000000E+00
    0    0    0    1    1   -0.18816255E+00    0.55824669E-01   -0.28689907E-01
    0    0    0    2    2   -0.18084062E+00    0.15325961E+00    0.23659890E-01
    0    0    0    3    3    0.20718934E+00   -0.16630421E-01   -0.26273043E-02
    0    0    0    4    3    0.37268099E-01   -0.17973055E-01   -0.84509546E-01
    0    0    0    5    3    0.92132863E-01    0.20234231E-01    0.62259042E-01
    0    0    1    1    1   -0.70793719E-01    0.43339728E-01   -0.60189961E-01
    0    0    1    2    2   -0.19302645E+00   -0.36275686E-01    0.84718568E-02
    0    0    1    3    3    0.11304226E+00   -0.96362628E-01    0.12798248E-01
    0    0    1    4    3    0.30883772E-01   -0.75114215E-01   -0.19466107E-01
    0    0    1    5    3    0.66123709E-01   -0.79805097E-01   -0.11291301E-01
    0    1    0    1    1   -0.47606652E-01    0.64728928E-01    0.31537372E-01
    0    1    0    2    2   -0.18168122E+00    0.13542347E+00   -0.52103170E-01
    0    1    0    3    3    0.21774257E+00   -0.19167076E+00   -0.59290591E-02
    0    1    0    4    3   -0.16667921E-02   -0.15220899E-01   -0.86105114E-01
    0    1    0    5    3    0.87674111E-01    0.73656808E-01   -0.14087022E-01
    0    1    1    1    1   -0.15675839E-01    0.12526414E-01    0.11106858E+00
    0    1    1    2    2   -0.10655199E+00    0.65534410E-02    0.14260206E-01
    0    1    1    3    3    0.16639043E+00   -0.18469060E+00    0.30527698E-02
    0    1    1    4    3   -0.70075989E-01   -0.48880421E-01   -0.47820678E-01
    0    1    1    5    3    0.65505956E-01    0.32928443E-02    0.11137337E+00
    1    0    0    1    1   -0.77542378E-01    0.60857366E-01    0.33584053E-01
    1    0    0    2    2   -0.12678629E+00    0.15832702E+00    0.34002520E-01
    1    0    0    3    3    0.75548873E-01   -0.22178629E-01    0.10758683E-01
    1    0    0    4    3   -0.48197475E-01   -0.45871445E-01   -0.12269238E+00
    1    0    0    5    3    0.69776703E-01    0.21001897E+00    0.36547153E-01
    1    0    1    1    1   -0.54002950E-01    0.90664530E-03   -0.53602408E-02
    1    0    1    2    2   -0.17779188E+00    0.76410552E-01    0.18752591E-01
    1    0    1    3    3    0.18882872E+00   -0.16160515E+00   -0.65847484E-03
    1    0    1    4    3    0.32263056E-01   -0.87996632E-01    0.12470923E+00
    1    0    1    5    3    0.37463183E-01    0.24161903E-02   -0.62793218E-01
    1    1    0    1    1   -0.15743662E+00    0.67042837E-01   -0.38859230E-01
    1    1    0    2    2   -0.18020678E+00    0.10643010E+00   -0.20500700E-01
    1    1    0    3    3    0.87367166E-01   -0.23903818E+00   -0.16992468E-02
    1    1    0    4    3    0.12150933E+00    0.48340978E-02    0.18340373E+00
    1    1    0    5    3    0.70485239E-01   -0.32117865E-01   -0.37276151E-01
    1    1    1    1    1   -0.10434966E+00    0.33091873E-01    0.10317180E-01
    1    1    1    2    2   -0.71716704E-01    0.33920445E-01    0.12537442E-01
    1    1    1    3    3    0.19560478E+00    0.98181877E-01    0.13961184E-01
    1    1    1    4    3    0.43501657E-01   -0.67444547E-01   -0.69389227E-01
    1    1    1    5    3    0.47810732E-01   -0.24018923E-02   -0.85007050E-01
