    2    2    2
    5    3
Sr        Ti        O         
    0.30000000E-01    0.30000000E-01   -0.12714777E-01   -0.32546297E-02   -0.16820361E-03    0.00000000E+00
    0    0    0    1    1    0.58012851E-01    0.68587728E-01   -0.44341881E-01
    0    0    0    2    2   -0.85718777E-01    0.12733773E+00    0.67698220E-01
    0    0    0    3    3    0.12230984E+00   -0.18003522E+00    0.49222510E-01
    0    0    0    4    3    0.31201635E-01   -0.31662825E-01    0.43945103E-01
    0    0    0    5    3    0.43034763E-01    0.31731877E-01    0.11435945E+00
    0    0    1    1    1   -0.89101869E-01    0.13323358E+00    0.19030741E-01
    0    0    1    2    2   -0.18223660E+00    0.14499238E+00    0.51616802E-01
    0    0    1    3    3    0.81537263E-01   -0.11288689E+00    0.23071051E-01
    0    0    1    4    3    0.13395664E-01   -0.84289936E-01   -0.77094789E-01
    0    0    1    5    3    0.62657832E-01   -0.15207188E+00    0.85470381E-01
    0    1    0    1    1   -0.36043666E-01    0.10275154E+00    0.39739507E-01
    0    1    0    2    2   -0.83965351E-01    0.15714884E+00   -0.25391880E-01
    0    1    0    3    3    0.10245166E+00   -0.69568170E-01   -0.12930138E-01
    0    1    0    4    3    0.40523572E-01   -0.48963883E-01   -0.38119223E-01
    0    1    0    5    3    0.56913829E-01   -0.11115866E+00   -0.11378118E+00
    0    1    1    1    1   -0.20881904E-01    0.83282451E-01   -0.70274342E-01
    0    1    1    2    2   -0.12734031E+00    0.16545507E+00   -0.58675432E-01
    0    1    1    3    3    0.10284441E+00   -0.14608057E+00   -0.26389816E-01
    0    1    1    4    3   -0.84375702E-01   -0.75763201E-01    0.36091874E-01
    0    1    1    5    3    0.32325636E-01   -0.35484691E-01    0.33513111E-01
    1    0    0    1    1   -0.58584557E-01    0.74947999E-01    0.36848835E-01
    1    0    0    2    2   -0.83941743E-01    0.10275787E+00   -0.55140166E-02
    1    0    0    3    3    0.53607927E-01   -0.11596535E+00    0.56766768E-01
    1    0    0    4    3   -0.32410215E-01   -0.34686179E-01    0.53352807E-01
    1    0    0    5    3    0.73365928E-01   -0.75325812E-01    0.61428191E-01
    1    0    1    1    1   -0.32069395E-01    0.17209374E-01   -0.49617352E-02
    1    0    1    2    2   -0.16503292E+00    0.13129879E+00    0.34402496E-01
    1    0    1    3    3    0.13604734E+00   -0.44888227E-01    0.39917554E-01
    1    0    1    4    3   -0.29445802E-01   -0.69072371E-01   -0.95099500E-01
    1    0    1    5    3   -0.10374144E-01   -0.17982055E+00    0.67949884E-01
    1    1    0    1    1    0.51200424E-01    0.60885061E-01    0.28057417E-01
    1    1    0    2    2   -0.12671008E+00    0.13599754E+00   -0.24413856E-01
    1    1    0    3    3    0.26499936E-01   -0.48649393E-01   -0.71367163E-01
    1    1    0    4    3   -0.12114487E+00   -0.34563215E-01   -0.11172799E-01
    1    1    0    5    3    0.47662767E-01   -0.91991617E-02   -0.40184605E-03
    1    1    1    1    1   -0.22843887E-01    0.14127351E+00    0.67640983E-01
    1    1    1    2    2   -0.91673578E-01    0.13016796E+00   -0.52197202E-01
    1    1    1    3    3    0.18132075E+00   -0.87963456E-01   -0.57120184E-02
    1    1    1    4    3    0.12410733E+00   -0.52526190E-01   -0.66440850E-01
    1    1    1    5    3    0.42874027E-01   -0.84334550E-02   -0.20584401E+00
