    2    2    2
    5    3
Sr        Ti        O         
    0.30000000E-01    0.30000000E-01   -0.82143426E-02   -0.19718995E-02    0.11019152E-02    0.00000000E+00
    0    0    0    1    1   -0.68511555E-01    0.82532868E-01   -0.20650971E-01
    0    0    0    2    2   -0.62572046E-01    0.18524955E+00   -0.37124594E-01
    0    0    0    3    3    0.16123340E+00   -0.14839249E+00    0.18373510E-01
    0    0    0    4    3    0.33508908E-01   -0.60188560E-01    0.52466086E-01
    0    0    0    5    3   -0.13130982E-01   -0.40544570E-02   -0.32334295E-01
    0    0    1    1    1    0.32869412E-01    0.63902707E-01    0.53790574E-02
    0    0    1    2    2   -0.55532289E-01    0.30315606E-01   -0.31934411E-01
    0    0    1    3    3    0.27966160E-01   -0.54049931E-01   -0.33616078E-01
    0    0    1    4    3   -0.54010466E-01   -0.29147810E-01   -0.82722783E-01
    0    0    1    5    3    0.94519605E-01   -0.87080852E-02   -0.35654072E-01
    0    1    0    1    1   -0.68000416E-01    0.10143980E+00    0.11660737E-01
    0    1    0    2    2   -0.83252799E-01    0.13968631E+00    0.29484572E-01
    0    1    0    3    3    0.22004287E+00   -0.79890049E-01    0.31499685E-02
    0    1    0    4    3   -0.14446635E+00   -0.74347470E-01   -0.12573558E-01
    0    1    0    5    3    0.30738480E-01   -0.62253096E-01   -0.27146173E-01
    0    1    1    1    1   -0.62952285E-01   -0.52768145E-01   -0.19512723E-01
    0    1    1    2    2   -0.11372071E+00    0.11444200E-01    0.56556674E-01
    0    1    1    3    3   -0.10745715E+00   -0.11600798E+00    0.28813868E-01
    0    1    1    4    3    0.29127266E-01   -0.68664705E-01    0.87549393E-01
    0    1    1    5    3    0.14051467E-01   -0.12058302E+00    0.14533796E+00
    1    0    0    1    1    0.30892788E-01    0.73581829E-01    0.64315412E-02
    1    0    0    2    2   -0.24142796E-01    0.12958167E+00   -0.45665800E-01
    1    0    0    3    3    0.64355254E-01   -0.65795804E-01   -0.87621529E-02
    1    0    0    4    3   -0.14073248E+00   -0.58983138E-01    0.59504901E-03
    1    0    0    5    3    0.51437405E-01    0.12761736E+00    0.98897555E-01
    1    0    1    1    1   -0.11145278E+00    0.92640706E-01    0.60841712E-01
    1    0    1    2    2   -0.87351470E-01    0.90072233E-01   -0.17707753E-01
    1    0    1    3    3   -0.54903950E-02   -0.16753504E+00   -0.11536528E-01
    1    0    1    4    3    0.63768674E-01   -0.75359416E-01    0.54633208E-02
    1    0    1    5    3    0.67830135E-01   -0.23427031E-01   -0.94572225E-01
    1    1    0    1    1    0.14309169E-01    0.99312935E-01    0.76204419E-01
    1    1    0    2    2   -0.33048078E-01    0.15366540E+00    0.44675044E-01
    1    1    0    3    3    0.47063118E-01   -0.66188014E-01   -0.48448136E-01
    1    1    0    4    3    0.85558243E-01   -0.14191380E-01   -0.35848107E-01
    1    1    0    5    3    0.56507158E-01   -0.10664882E+00   -0.20529779E-01
    1    1    1    1    1   -0.14051705E-01    0.68138323E-01    0.21677853E-01
    1    1    1    2    2   -0.37040745E-01    0.13780949E+00    0.27010596E-01
    1    1    1    3    3    0.12269205E+00   -0.75037614E-01   -0.75268781E-01
    1    1    1    4    3    0.32167660E-01   -0.48474788E-01   -0.19756539E-01
    1    1    1    5    3    0.62782824E-02   -0.62941454E-02   -0.69203457E-01
