    2    2    2
    5    3
Sr        Ti        O         
    0.30000000E-01    0.30000000E-01   -0.26480609E-02    0.35661987E-03    0.10074244E-02    0.00000000E+00
    0    0    0    1    1   -0.75409833E-01    0.61991025E-01    0.49026407E-01
    0    0    0    2    2   -0.10025673E+00    0.61681742E-01    0.96244859E-02
    0    0    0    3    3    0.20917769E-01   -0.95838003E-02   -0.13707060E-01
    0    0    0    4    3   -0.56681261E-01   -0.31538304E-01   -0.45456580E-02
    0    0    0    5    3    0.47420735E-01   -0.56362806E-01   -0.81486315E-01
    0    0    1    1    1    0.11663639E+00    0.66223575E-01    0.88669289E-01
    0    0    1    2    2   -0.18546391E-01    0.24632286E-01    0.44887049E-01
    0    0    1    3    3   -0.30654424E-01   -0.41678492E-01    0.37665433E-01
    0    0    1    4    3    0.79604599E-01   -0.28310783E-01   -0.19485076E-01
    0    0    1    5    3    0.32094308E-01   -0.10460683E-01   -0.63539854E-02
    0    1    0    1    1    0.18093891E-01    0.82081994E-01    0.45943306E-01
    0    1    0    2    2    0.37854186E-01    0.83810956E-01   -0.37360827E-01
    0    1    0    3    3    0.75045420E-01   -0.11345811E+00    0.37068046E-01
    0    1    0    4    3   -0.14325787E-01   -0.19106105E-01    0.11076254E+00
    0    1    0    5    3   -0.55905084E-01   -0.94111472E-01   -0.98454496E-01
    0    1    1    1    1   -0.89983232E-01   -0.31394125E-02    0.16655300E-01
    0    1    1    2    2   -0.48155794E-01    0.14867133E-01    0.67379610E-02
    0    1    1    3    3    0.33321722E-01    0.12895457E+00   -0.12074080E-01
    0    1    1    4    3   -0.13226385E-01    0.45691526E-01   -0.11536411E-01
    0    1    1    5    3    0.64354814E-01   -0.28482086E-01   -0.43416971E-01
    1    0    0    1    1   -0.95455771E-01   -0.37013540E-02   -0.48458699E-01
    1    0    0    2    2   -0.34510734E-01    0.17281849E-02   -0.36663395E-01
    1    0    0    3    3    0.22668033E-01   -0.62639830E-01   -0.55041806E-02
    1    0    0    4    3   -0.19328126E-01   -0.20817452E-01    0.82649376E-01
    1    0    0    5    3   -0.54019770E-02   -0.29118682E-01    0.21230875E-01
    1    0    1    1    1   -0.24044455E-01   -0.44274794E-01    0.48070531E-01
    1    0    1    2    2   -0.55016352E-01    0.27518704E-01   -0.42591806E-01
    1    0    1    3    3    0.96532278E-01    0.22221881E-01   -0.24726533E-01
    1    0    1    4    3    0.46372205E-01    0.14431197E-01   -0.15421308E-02
    1    0    1    5    3    0.20750962E-01    0.37526025E-01   -0.50395272E-01
    1    1    0    1    1    0.54134088E-02   -0.15315826E-01    0.40282307E-01
    1    1    0    2    2    0.32351468E-01    0.47550685E-01    0.10388721E-01
    1    1    0    3    3    0.10742933E+00   -0.95668646E-02   -0.55639978E-01
    1    1    0    4    3   -0.28850731E-01   -0.55699022E-01   -0.36338856E-01
    1    1    0    5    3   -0.90724622E-03    0.74940919E-02   -0.65236981E-01
    1    1    1    1    1   -0.51398549E-01   -0.72636961E-01    0.10922524E-01
    1    1    1    2    2   -0.40079219E-01    0.15957366E-01    0.37525389E-01
    1    1    1    3    3    0.64989811E-01   -0.80165288E-01    0.26060231E-01
    1    1    1    4    3   -0.99929833E-01   -0.80560819E-03   -0.55008482E-01
    1    1    1    5    3    0.36216579E-01    0.86610794E-01    0.26357420E-01
