    2    2    2
    5    3
Sr        Ti        O         
    0.30000000E-01    0.30000000E-01   -0.62547325E-02   -0.11699405E-02   -0.63294714E-06    0.00000000E+00
    0    0    0    1    1   -0.34187051E-01    0.34450905E-01    0.23088568E-02
    0    0    0    2    2   -0.17970665E+00    0.23705220E-01    0.32982721E-01
    0    0    0    3    3    0.91860335E-02   -0.34917293E-01   -0.28799563E-01
    0    0    0    4    3   -0.11345586E+00    0.10155321E-01    0.81884107E-01
    0    0    0    5    3    0.37655198E-01   -0.76157380E-01    0.32045418E-02
    0    0    1    1    1    0.60165797E-01    0.11376934E+00    0.75547202E-01
    0    0    1    2    2    0.36805319E-01    0.68670352E-01    0.31393786E-01
    0    0    1    3    3    0.39944640E-01   -0.60800316E-01    0.39225801E-01
    0    0    1    4    3   -0.31095490E-01   -0.47357399E-01   -0.22987038E-01
    0    0    1    5    3    0.16472239E-01    0.57949733E-01    0.43388858E-01
    0    1    0    1    1    0.84218063E-01   -0.83655333E-02    0.11853850E-01
    0    1    0    2    2   -0.10994515E+00    0.38721792E-01    0.40516082E-01
    0    1    0    3    3    0.15298715E+00   -0.66021349E-01    0.20729160E-02
    0    1    0    4    3   -0.16897201E-01   -0.52015702E-01   -0.67792480E-01
    0    1    0    5    3   -0.54467556E-02    0.22975837E-01   -0.14574526E+00
    0    1    1    1    1   -0.59589163E-02    0.14644324E-01    0.86305097E-01
    0    1    1    2    2   -0.86313965E-01    0.67153777E-03   -0.34419251E-01
    0    1    1    3    3    0.83405364E-01   -0.50645936E-01   -0.48076601E-01
    0    1    1    4    3    0.23545041E-02   -0.16477996E-01   -0.47622373E-01
    0    1    1    5    3    0.80326225E-01   -0.11047426E+00   -0.27366976E-01
    1    0    0    1    1   -0.13050635E+00    0.40536689E-01    0.23841844E-01
    1    0    0    2    2   -0.86701463E-01    0.58720941E-01   -0.64811289E-02
    1    0    0    3    3    0.27787174E-01    0.22912768E-01    0.54868212E-01
    1    0    0    4    3   -0.40750253E-01   -0.33630193E-01   -0.38454916E-01
    1    0    0    5    3    0.25325421E-01   -0.55212521E-01    0.37595364E-01
    1    0    1    1    1   -0.82414459E-01   -0.67007327E-02   -0.29322510E-01
    1    0    1    2    2    0.60014824E-01    0.73667953E-01    0.12449722E-01
    1    0    1    3    3    0.18901444E+00   -0.88498734E-01    0.31246447E-01
    1    0    1    4    3    0.15552411E+00   -0.15058113E-01   -0.38149074E-02
    1    0    1    5    3    0.61064976E-02    0.42476702E-01    0.15289877E-01
    1    1    0    1    1    0.22337879E-01   -0.19195161E-01   -0.60129765E-01
    1    1    0    2    2   -0.14797323E+00    0.12542891E+00    0.40626813E-01
    1    1    0    3    3   -0.27760310E-01    0.17424562E-01   -0.25063497E-01
    1    1    0    4    3    0.42699756E-02   -0.77470212E-01    0.42013676E-01
    1    1    0    5    3    0.61376949E-02    0.53309026E-01    0.14969948E-01
    1    1    1    1    1    0.80776519E-01    0.18749249E-01    0.37744928E-01
    1    1    1    2    2   -0.48364284E-01    0.13149328E+00    0.23399242E-01
    1    1    1    3    3    0.28789816E-01   -0.11569232E+00   -0.16901811E-01
    1    1    1    4    3   -0.97260256E-01   -0.35832142E-01   -0.94487558E-01
    1    1    1    5    3    0.35132760E-01    0.88845670E-04   -0.87264261E-01
