    2    2    2
    5    3
Sr        Ti        O         
    0.00000000E+00    0.00000000E+00   -0.58966016E-03    0.38992140E-02   -0.32249348E-02    0.00000000E+00
    0    0    0    1    1   -0.37671319E-01   -0.26799731E-01   -0.49716539E-01
    0    0    0    2    2   -0.44041232E-02    0.32969789E-01   -0.41948785E-01
    0    0    0    3    3   -0.14943465E+00    0.26740049E+00    0.41477774E-01
    0    0    0    4    3   -0.22506452E+00   -0.38522581E-01   -0.25409138E+00
    0    0    0    5    3    0.17274116E-01    0.17682449E+00    0.22151740E+00
    0    0    1    1    1    0.14068647E-01   -0.27462364E-01   -0.12786647E-01
    0    0    1    2    2   -0.19016567E-01   -0.55682857E-01   -0.79571784E-02
    0    0    1    3    3    0.19625189E+00   -0.23089760E+00   -0.18609069E-02
    0    0    1    4    3    0.15914050E+00   -0.19416455E-02    0.26220758E+00
    0    0    1    5    3    0.29617290E-01   -0.25685860E+00   -0.13864782E+00
    0    1    0    1    1    0.10528650E-01   -0.15517168E-01   -0.93822625E-02
    0    1    0    2    2   -0.10673146E-01   -0.30589826E-02   -0.83392492E-02
    0    1    0    3    3    0.26363422E+00   -0.20255197E+00   -0.52006890E-01
    0    1    0    4    3    0.24670840E+00    0.56280045E-02    0.20912911E+00
    0    1    0    5    3   -0.22815638E-01   -0.17866794E+00   -0.35479758E+00
    0    1    1    1    1    0.10173890E-01    0.27174369E-01    0.18944030E-02
    0    1    1    2    2    0.11495477E-01   -0.71096210E-01   -0.93853439E-02
    0    1    1    3    3   -0.24252252E+00    0.24929679E+00   -0.24198692E-01
    0    1    1    4    3   -0.27702552E+00   -0.49591344E-01   -0.21138103E+00
    0    1    1    5    3    0.25749468E-01    0.15177137E+00    0.18071363E+00
    1    0    0    1    1   -0.10746635E-01    0.37114898E-01    0.94439856E-02
    1    0    0    2    2    0.19239473E-01   -0.11057397E-01    0.16255535E-01
    1    0    0    3    3    0.19803544E+00    0.72466919E-01    0.25597749E-01
    1    0    0    4    3    0.21151042E+00    0.24138416E-01   -0.39985115E-01
    1    0    0    5    3    0.17341250E-01   -0.18185340E+00   -0.20124689E+00
    1    0    1    1    1    0.21474645E-01   -0.37526770E-01    0.77472588E-01
    1    0    1    2    2   -0.19307940E-01    0.50982012E-01   -0.57809216E-03
    1    0    1    3    3   -0.17267628E+00    0.76751614E-02    0.12699396E-01
    1    0    1    4    3   -0.28729546E+00    0.34485341E-03   -0.20425420E-01
    1    0    1    5    3    0.18362122E-01    0.25782758E+00    0.17209234E+00
    1    1    0    1    1    0.32726003E-01   -0.74269433E-01    0.96135077E-02
    1    1    0    2    2   -0.28226530E-01    0.85538298E-02    0.65671313E-01
    1    1    0    3    3   -0.28042245E+00    0.49095975E-01   -0.29780634E-01
    1    1    0    4    3   -0.12233219E+00   -0.18975579E-01    0.54078405E-01
    1    1    0    5    3    0.18565572E-02    0.23163310E+00    0.26838305E+00
    1    1    1    1    1   -0.53299932E-01   -0.61265820E-01    0.36877973E-01
    1    1    1    2    2   -0.12120604E-01    0.53264283E-01    0.58809955E-01
    1    1    1    3    3    0.28981568E+00   -0.39025979E-01    0.23322541E-01
    1    1    1    4    3    0.17121692E+00    0.27504687E-01    0.39264350E-01
    1    1    1    5    3    0.88349611E-02   -0.14904365E+00   -0.31800614E+00
