    2    2    2
    5    3
Sr        Ti        O         
    0.00000000E+00    0.00000000E+00    0.18341562E-02   -0.25385099E-02   -0.25198156E-02    0.00000000E+00
    0    0    0    1    1   -0.45738871E-01    0.28489019E-01   -0.10861650E-01
    0    0    0    2    2    0.13399628E-01    0.27322899E-01   -0.52465716E-01
    0    0    0    3    3    0.13133047E-01    0.18964525E+00    0.71464151E-01
    0    0    0    4    3   -0.77324847E-01   -0.10600112E-01   -0.59046144E-02
    0    0    0    5    3   -0.41776179E-01    0.73162076E-01   -0.13869546E+00
    0    0    1    1    1    0.69411319E-01    0.82128935E-01   -0.65107866E-01
    0    0    1    2    2   -0.20876016E-01   -0.11923804E-01   -0.27712645E-01
    0    0    1    3    3   -0.87505729E-01   -0.97723259E-01   -0.14398107E-01
    0    0    1    4    3    0.13804891E+00    0.17049551E-01    0.83064430E-01
    0    0    1    5    3   -0.33296123E-02   -0.22113668E+00   -0.13562401E+00
    0    1    0    1    1   -0.69478851E-02   -0.10250755E-01    0.54370992E-01
    0    1    0    2    2    0.11927212E-01   -0.15575400E-01    0.60659888E-02
    0    1    0    3    3    0.13515207E+00    0.98107220E-02    0.13232409E-01
    0    1    0    4    3   -0.56069293E-02   -0.95061446E-05    0.11199960E+00
    0    1    0    5    3   -0.22874254E-01   -0.15941054E+00    0.13394179E-01
    0    1    1    1    1    0.23076010E-01    0.50496548E-01    0.81381314E-01
    0    1    1    2    2    0.21168667E-01    0.23969392E-01   -0.31969774E-01
    0    1    1    3    3   -0.36138807E-01    0.12949361E+00   -0.21405093E-01
    0    1    1    4    3   -0.46477445E-01    0.27207915E-01   -0.10663678E+00
    0    1    1    5    3    0.20596015E-02    0.11522434E+00    0.12162944E+00
    1    0    0    1    1   -0.33981312E-01   -0.10893179E-01    0.97978962E-01
    1    0    0    2    2    0.68247820E-02    0.28990641E-02    0.51287047E-01
    1    0    0    3    3    0.56043187E-01   -0.73059943E-01   -0.23787794E-01
    1    0    0    4    3    0.78854269E-01   -0.91922235E-02    0.46968823E-01
    1    0    0    5    3   -0.10253306E-01   -0.62697114E-01   -0.13621567E+00
    1    0    1    1    1   -0.14037901E+00   -0.68199557E-01   -0.64840398E-01
    1    0    1    2    2   -0.31910647E-04   -0.39371151E-01    0.80621685E-01
    1    0    1    3    3   -0.16197337E-01    0.42448074E-01    0.36279345E-02
    1    0    1    4    3    0.41582980E-02    0.25046006E-02   -0.59850253E-01
    1    0    1    5    3   -0.43868236E-01   -0.34751906E-01    0.33365269E-01
    1    1    0    1    1   -0.22848205E-01    0.81811426E-02   -0.30619178E-01
    1    1    0    2    2    0.42699593E-01   -0.62401327E-01    0.10273519E-01
    1    1    0    3    3   -0.14693417E+00    0.94870252E-01    0.34897793E-01
    1    1    0    4    3   -0.15670003E+00   -0.38169877E-01   -0.76861044E-01
    1    1    0    5    3    0.21917077E-01    0.96267333E-01    0.41612369E-01
    1    1    1    1    1   -0.35092256E-01    0.11623070E-01    0.69789113E-01
    1    1    1    2    2    0.17861636E-01    0.31989901E-01   -0.30972622E-01
    1    1    1    3    3    0.11990436E+00   -0.46339132E-01    0.35475876E-01
    1    1    1    4    3    0.25255501E+00    0.17271130E-01    0.49065425E-01
    1    1    1    5    3   -0.27312332E-01   -0.11034935E+00   -0.77637647E-01
