    2    2    2
    5    3
Sr        Ti        O         
    0.00000000E+00    0.00000000E+00    0.13344328E-02    0.61281995E-03    0.22817684E-02    0.00000000E+00
    0    0    0    1    1    0.11261271E+00   -0.42320569E-02   -0.19740021E-02
    0    0    0    2    2    0.13247303E+00   -0.26049119E-01   -0.30216107E-01
    0    0    0    3    3   -0.56834993E-01    0.26608709E+00   -0.15972001E-01
    0    0    0    4    3   -0.21526625E+00   -0.11532679E-01   -0.25895930E+00
    0    0    0    5    3    0.10850890E-02    0.19284986E+00   -0.47350785E-01
    0    0    1    1    1    0.16754097E-01   -0.80625207E-02    0.10135394E-01
    0    0    1    2    2    0.14312976E-01   -0.57299726E-01    0.18198995E-01
    0    0    1    3    3    0.59667888E-02   -0.24922937E+00   -0.17327948E-01
    0    0    1    4    3    0.13979340E+00   -0.98430077E-02    0.15433053E+00
    0    0    1    5    3   -0.14797816E-01   -0.18398493E+00    0.24349516E-01
    0    1    0    1    1   -0.18470221E-01    0.73030574E-01   -0.48179293E-01
    0    1    0    2    2   -0.47774266E-01   -0.80633477E-02    0.11081796E-01
    0    1    0    3    3    0.21305838E-01   -0.25691815E+00   -0.37454475E-01
    0    1    0    4    3    0.84952589E-01    0.18808999E-01    0.32007350E+00
    0    1    0    5    3   -0.46613058E-01   -0.14242548E+00   -0.14906050E+00
    0    1    1    1    1    0.39848637E-02    0.80095594E-02    0.52373374E-01
    0    1    1    2    2   -0.37706221E-01   -0.74213535E-02   -0.45749892E-01
    0    1    1    3    3   -0.11482841E+00    0.25494050E+00   -0.25195482E-01
    0    1    1    4    3   -0.54220136E-01   -0.18649472E-01   -0.20835202E+00
    0    1    1    5    3   -0.69920857E-02    0.10957070E+00    0.84453309E-01
    1    0    0    1    1    0.67288336E-01   -0.25096429E-01    0.66852768E-01
    1    0    0    2    2    0.14042814E+00    0.33626813E-01   -0.50342058E-01
    1    0    0    3    3    0.47586528E-02   -0.41786210E-01    0.12453700E-01
    1    0    0    4    3    0.20952380E+00   -0.13639930E-01   -0.61137892E-01
    1    0    0    5    3   -0.17476032E-01   -0.48030896E-01   -0.46796135E-01
    1    0    1    1    1    0.40057152E-01   -0.15317993E-01    0.13341221E-01
    1    0    1    2    2   -0.46537498E-01   -0.24644206E-01    0.47045713E-01
    1    0    1    3    3   -0.92087738E-01   -0.69016035E-01    0.36523445E-02
    1    0    1    4    3   -0.24267809E+00   -0.31641388E-01    0.27450021E-01
    1    0    1    5    3   -0.21701134E-01    0.25030927E+00    0.34536415E-01
    1    1    0    1    1    0.18378205E-01    0.13969783E+00   -0.27161398E-01
    1    1    0    2    2   -0.41509628E-02    0.56979182E-01    0.26708064E-01
    1    1    0    3    3   -0.10558281E+00   -0.76674630E-01   -0.25251726E-01
    1    1    0    4    3   -0.14469006E+00    0.36892639E-02    0.58779613E-01
    1    1    0    5    3   -0.15793355E-01    0.15439414E+00    0.78323756E-01
    1    1    1    1    1   -0.85649933E-01   -0.62933030E-01    0.34548253E-01
    1    1    1    2    2   -0.24971972E-01   -0.21640749E-01    0.39610619E-01
    1    1    1    3    3    0.14152957E+00    0.81600553E-01   -0.86719016E-02
    1    1    1    4    3    0.30723763E+00    0.17968333E-01    0.10353604E+00
    1    1    1    5    3   -0.47619826E-01   -0.24742997E+00   -0.11668203E+00
