    2    2    2
    5    3
Sr        Ti        O         
    0.00000000E+00    0.00000000E+00    0.11803257E-02    0.36721431E-03    0.17205215E-04    0.00000000E+00
    0    0    0    1    1    0.59353469E-01   -0.29560263E-01    0.82140959E-01
    0    0    0    2    2    0.56648637E-02   -0.43846595E-01   -0.12020232E-01
    0    0    0    3    3   -0.15632710E+00    0.28374146E+00   -0.18310103E-01
    0    0    0    4    3   -0.21758761E+00   -0.30836046E-01   -0.28216926E+00
    0    0    0    5    3    0.15663766E-01    0.18776607E+00    0.94656107E-01
    0    0    1    1    1    0.96447177E-02    0.31974889E-01    0.52688347E-01
    0    0    1    2    2   -0.18107722E-01   -0.11120464E-01    0.13358119E-01
    0    0    1    3    3    0.40238543E-01   -0.26196937E+00   -0.31239317E-01
    0    0    1    4    3    0.21191496E+00   -0.13378418E-01    0.21580018E+00
    0    0    1    5    3   -0.38152711E-02   -0.23327719E+00   -0.14079252E+00
    0    1    0    1    1    0.87196388E-01    0.26456599E-01   -0.68011939E-01
    0    1    0    2    2    0.67119796E-01   -0.41725246E-01    0.36230356E-01
    0    1    0    3    3    0.21618378E+00   -0.42692856E+00   -0.45274966E-01
    0    1    0    4    3    0.19872398E+00   -0.21546402E-02    0.23032819E+00
    0    1    0    5    3   -0.47898507E-01   -0.20569514E+00   -0.28433152E+00
    0    1    1    1    1   -0.50885845E-03   -0.25093576E-01    0.83884883E-01
    0    1    1    2    2   -0.11073155E-01    0.28009900E-01    0.36574129E-01
    0    1    1    3    3   -0.20446663E+00    0.11353879E+00   -0.54674262E-01
    0    1    1    4    3   -0.22729376E+00   -0.31700818E-01   -0.27646292E+00
    0    1    1    5    3    0.22598292E-01    0.27546526E+00    0.19170273E+00
    1    0    0    1    1    0.61051248E-01   -0.19091420E-01    0.99879906E-01
    1    0    0    2    2    0.12340056E+00    0.34074279E-01   -0.13721401E-01
    1    0    0    3    3    0.14487968E+00    0.58089272E-01    0.74754827E-02
    1    0    0    4    3    0.21584792E+00    0.19020585E-01    0.40214619E-01
    1    0    0    5    3   -0.21761239E-01   -0.28261328E+00   -0.14540807E+00
    1    0    1    1    1   -0.38031794E-01    0.70705399E-01   -0.12426400E-01
    1    0    1    2    2    0.84322048E-02    0.77314995E-02    0.41566051E-01
    1    0    1    3    3   -0.77190855E-01    0.97238396E-01    0.53074987E-01
    1    0    1    4    3   -0.27183614E+00    0.50526637E-03    0.16320358E-01
    1    0    1    5    3   -0.67606774E-01    0.26767380E+00    0.59699731E-02
    1    1    0    1    1   -0.60311370E-02   -0.30231150E-01   -0.73141824E-01
    1    1    0    2    2    0.56743476E-02   -0.46364972E-02    0.67338772E-01
    1    1    0    3    3   -0.22085440E+00    0.45858631E-01    0.43414595E-01
    1    1    0    4    3   -0.24402415E+00   -0.12760730E-01    0.46131523E-01
    1    1    0    5    3   -0.20923099E-01    0.24525629E+00    0.19603774E+00
    1    1    1    1    1    0.12315972E-01    0.18834056E-01   -0.86979589E-01
    1    1    1    2    2   -0.64185807E-01    0.41954295E-01    0.19243955E-01
    1    1    1    3    3    0.15860147E+00   -0.47647843E-01    0.41853689E-01
    1    1    1    4    3    0.27263922E+00    0.25241847E-01    0.15799775E+00
    1    1    1    5    3   -0.17621164E-01   -0.12486932E+00   -0.32891908E+00
