    2    2    2
    5    3
Sr        Ti        O         
    0.00000000E+00    0.00000000E+00   -0.35385389E-02    0.29499810E-02   -0.19556287E-02    0.00000000E+00
    0    0    0    1    1    0.55061452E-01   -0.28814516E-01    0.38994862E-01
    0    0    0    2    2    0.56837600E-02    0.84770462E-01   -0.75093546E-01
    0    0    0    3    3   -0.20174123E+00    0.26253406E+00    0.27074160E-01
    0    0    0    4    3   -0.25625156E+00    0.13934541E-01   -0.23160626E+00
    0    0    0    5    3   -0.60740057E-02    0.10310331E+00    0.20587791E+00
    0    0    1    1    1    0.39042296E-01    0.39854353E-01    0.13751012E-01
    0    0    1    2    2    0.31419872E-01    0.31886887E-01   -0.41357427E-01
    0    0    1    3    3    0.27059185E+00   -0.17917303E+00   -0.58070419E-01
    0    0    1    4    3    0.25582834E+00    0.15707097E-01    0.21340200E+00
    0    0    1    5    3    0.25187977E-01   -0.32150875E+00   -0.28266746E+00
    0    1    0    1    1   -0.25582036E-01    0.34923753E-01   -0.65288690E-01
    0    1    0    2    2   -0.14863704E-02    0.24206922E-01   -0.32544170E-01
    0    1    0    3    3    0.37938652E+00   -0.19684870E+00    0.47709465E-03
    0    1    0    4    3    0.11837864E+00   -0.68113336E-02    0.27613916E+00
    0    1    0    5    3    0.22083516E-01   -0.15564257E+00   -0.35577725E+00
    0    1    1    1    1    0.33882984E-02   -0.29046604E-01    0.50124913E-02
    0    1    1    2    2   -0.10739512E-01    0.23920552E-02   -0.48271713E-01
    0    1    1    3    3   -0.27201567E+00    0.19696394E+00   -0.17594931E-01
    0    1    1    4    3   -0.27128352E+00   -0.38013652E-02   -0.14679418E+00
    0    1    1    5    3    0.21484683E-01    0.23527837E+00    0.28229816E+00
    1    0    0    1    1   -0.49495575E-01    0.30378589E-01    0.17571193E+00
    1    0    0    2    2   -0.18359978E-01   -0.21296206E-01    0.74045214E-02
    1    0    0    3    3    0.19981403E+00   -0.16058142E+00    0.70123073E-01
    1    0    0    4    3    0.17750496E+00   -0.17379948E-01    0.82383978E-01
    1    0    0    5    3    0.18258222E-01   -0.22171243E+00   -0.22637860E+00
    1    0    1    1    1   -0.28438585E-01   -0.91012751E-01   -0.48731725E-01
    1    0    1    2    2    0.59628127E-02   -0.45500365E-01    0.14144905E-01
    1    0    1    3    3   -0.24738955E+00    0.12682440E+00    0.47335078E-01
    1    0    1    4    3   -0.23237101E+00   -0.14973321E-01   -0.78857233E-01
    1    0    1    5    3   -0.41362219E-01    0.25184789E+00    0.25143224E+00
    1    1    0    1    1   -0.41079953E-02    0.56799349E-01   -0.50085893E-01
    1    1    0    2    2    0.30271604E-01   -0.37252535E-01    0.14997273E-01
    1    1    0    3    3   -0.37461772E+00   -0.43917481E-01    0.46687438E-02
    1    1    0    4    3   -0.22436305E+00   -0.34809712E-01    0.18933349E-01
    1    1    0    5    3    0.51745091E-02    0.23845493E+00    0.32209196E+00
    1    1    1    1    1    0.49610774E-01    0.19343247E-01   -0.14251901E-01
    1    1    1    2    2   -0.42345778E-01    0.92594435E-02   -0.83706520E-03
    1    1    1    3    3    0.32459227E+00    0.85921270E-02    0.17036252E-01
    1    1    1    4    3    0.25322272E+00   -0.30196916E-01    0.39370819E-01
    1    1    1    5    3    0.16076258E-01   -0.14677578E+00   -0.35445250E+00
