    2    2    2
    5    3
Sr        Ti        O         
    0.00000000E+00    0.00000000E+00    0.31490492E-03    0.37351892E-02    0.56686447E-03    0.00000000E+00
    0    0    0    1    1    0.34545540E-01    0.11805462E-01    0.25578201E-01
    0    0    0    2    2   -0.13281681E-01   -0.22645187E-01   -0.20856906E-01
    0    0    0    3    3   -0.88038513E-01    0.11342534E+00   -0.42945426E-01
    0    0    0    4    3   -0.48578440E-01    0.11383449E-01    0.50765928E-01
    0    0    0    5    3   -0.34901669E-02    0.72788386E-02    0.55589338E-01
    0    0    1    1    1    0.52102487E-01    0.70292419E-02   -0.59438026E-01
    0    0    1    2    2    0.16628495E-01   -0.24810626E-01   -0.25653679E-01
    0    0    1    3    3   -0.82702727E-01    0.17368103E-02   -0.24143394E-01
    0    0    1    4    3    0.17071069E+00    0.28230044E-01    0.81262831E-01
    0    0    1    5    3   -0.45441333E-02   -0.19982515E+00   -0.47519500E-01
    0    1    0    1    1   -0.94862103E-01    0.38953681E-01    0.29851121E-01
    0    1    0    2    2   -0.28529573E-01   -0.12209058E-01   -0.47850063E-01
    0    1    0    3    3    0.12316144E+00   -0.19091540E-01   -0.69244500E-02
    0    1    0    4    3    0.53496884E-01    0.74299102E-01    0.14561114E-01
    0    1    0    5    3   -0.20142785E-01    0.24744850E-01    0.25861890E-01
    0    1    1    1    1   -0.33123865E-01    0.18140061E-01    0.86928539E-02
    0    1    1    2    2   -0.19431763E-01    0.27464065E-01   -0.18755964E-01
    0    1    1    3    3   -0.74215410E-01    0.11863835E+00    0.25051725E-01
    0    1    1    4    3   -0.11581624E-03    0.42802303E-01   -0.30641849E-01
    0    1    1    5    3    0.32770058E-01    0.99019534E-01    0.34836000E-01
    1    0    0    1    1    0.13298221E-01    0.43581368E-01   -0.97672490E-01
    1    0    0    2    2   -0.12386380E-01   -0.57607360E-01   -0.29239028E-01
    1    0    0    3    3    0.16643488E-01   -0.68795154E-01   -0.19794178E-02
    1    0    0    4    3    0.79180954E-01   -0.27184474E-01    0.11370488E+00
    1    0    0    5    3   -0.17194084E-01   -0.59434938E-01   -0.94715812E-01
    1    0    1    1    1   -0.13424194E-01    0.58427887E-01   -0.90541366E-01
    1    0    1    2    2    0.24689297E-01   -0.67120633E-01   -0.32512212E-01
    1    0    1    3    3   -0.94482907E-01    0.10391710E+00    0.19728624E-01
    1    0    1    4    3   -0.36235573E-01   -0.81865169E-02    0.86958789E-02
    1    0    1    5    3   -0.25393958E-01    0.83012590E-01    0.68439332E-01
    1    1    0    1    1   -0.79327498E-02   -0.87585851E-02    0.18705209E-01
    1    1    0    2    2   -0.28440096E-01   -0.53476459E-01   -0.26081029E-01
    1    1    0    3    3   -0.76737800E-01    0.10577640E+00    0.17433505E-01
    1    1    0    4    3   -0.15173813E-01   -0.21985346E-01   -0.11530166E+00
    1    1    0    5    3   -0.20416010E-01    0.54371400E-01    0.84344337E-01
    1    1    1    1    1   -0.34260456E-01   -0.26503480E-01    0.58505208E-02
    1    1    1    2    2    0.13162700E-01   -0.95660891E-01   -0.25575127E-01
    1    1    1    3    3    0.75052792E-01   -0.98940358E-01    0.77165868E-01
    1    1    1    4    3    0.13892205E+00   -0.85523912E-01    0.15247829E+00
    1    1    1    5    3    0.48769899E-01   -0.11627822E+00   -0.80250042E-01
