    2    2    2
    5    3
Sr        Ti        O         
    0.00000000E+00    0.00000000E+00    0.11300650E-03   -0.75388883E-03   -0.22202282E-02    0.00000000E+00
    0    0    0    1    1    0.11580122E+00    0.36064660E-01    0.11340734E+00
    0    0    0    2    2    0.18769919E-01   -0.44305501E-01   -0.16235581E-01
    0    0    0    3    3    0.21715987E-01    0.36083163E-01   -0.66260244E-02
    0    0    0    4    3   -0.22942854E-01    0.37517347E-01    0.73289889E-01
    0    0    0    5    3    0.35160836E-01   -0.31272029E-02   -0.41263605E-01
    0    0    1    1    1   -0.25905269E-01    0.93741886E-01    0.45120073E-01
    0    0    1    2    2   -0.21510924E-01    0.89576998E-02    0.10958871E-01
    0    0    1    3    3    0.23395340E-01   -0.56264051E-02   -0.15063693E-01
    0    0    1    4    3    0.49272693E-01    0.37007817E-01    0.63923014E-01
    0    0    1    5    3   -0.44268259E-01   -0.58306855E-01   -0.21878391E-01
    0    1    0    1    1   -0.34745371E-01    0.16789941E-01   -0.32912405E-01
    0    1    0    2    2   -0.10635599E+00    0.35068938E-01   -0.19095159E-01
    0    1    0    3    3    0.88593821E-02   -0.89739811E-01   -0.66064993E-02
    0    1    0    4    3    0.10630981E+00    0.19791714E-01   -0.18489503E-01
    0    1    0    5    3    0.44790084E-01   -0.26961258E-01   -0.27883889E-01
    0    1    1    1    1   -0.26297376E-01   -0.59229984E-01   -0.25922657E-01
    0    1    1    2    2   -0.73555807E-02   -0.59762194E-02   -0.63969028E-01
    0    1    1    3    3   -0.27600588E-01    0.13212196E-01    0.20622327E-01
    0    1    1    4    3   -0.10333705E+00   -0.57539564E-01    0.64756697E-01
    0    1    1    5    3   -0.30586165E-02    0.15918896E-01    0.15972882E-01
    1    0    0    1    1    0.26264502E-01   -0.47441073E-01   -0.58884758E-01
    1    0    0    2    2   -0.44305005E-01   -0.33901457E-02   -0.42068333E-01
    1    0    0    3    3   -0.74544038E-01   -0.57728993E-01    0.38272779E-01
    1    0    0    4    3    0.16326612E+00    0.11763944E-01    0.11997182E+00
    1    0    0    5    3   -0.10661398E-01   -0.38510167E-01   -0.56585933E-01
    1    0    1    1    1    0.61722991E-01   -0.53099255E-01   -0.14777200E+00
    1    0    1    2    2    0.11828625E-01   -0.62013526E-01    0.18335346E-01
    1    0    1    3    3   -0.47194810E-01    0.30552403E-01   -0.42239023E-01
    1    0    1    4    3   -0.13825701E+00    0.29552887E-01   -0.88703923E-01
    1    0    1    5    3    0.44157401E-02    0.34057836E-01   -0.59296393E-01
    1    1    0    1    1   -0.63899490E-01   -0.12944253E-01   -0.11589837E+00
    1    1    0    2    2   -0.96596937E-01    0.21950558E-01    0.37288204E-01
    1    1    0    3    3   -0.20487906E-01    0.19791235E+00   -0.58144592E-02
    1    1    0    4    3    0.64803679E-01    0.48050013E-01    0.20514007E-01
    1    1    0    5    3    0.58488356E-01    0.14670660E+00    0.10411719E+00
    1    1    1    1    1   -0.56824774E-01   -0.57686313E-01   -0.45088005E-02
    1    1    1    2    2    0.37597459E-01   -0.50160597E-01    0.23321538E-01
    1    1    1    3    3    0.97943419E-01   -0.61201036E-01    0.26460045E-01
    1    1    1    4    3    0.60044929E-01   -0.25814630E-01    0.13321166E+00
    1    1    1    5    3   -0.34301841E-01   -0.49898057E-01   -0.11825260E-01
