    2    2    2
    5    3
Sr        Ti        O         
    0.00000000E+00    0.00000000E+00    0.14275667E-02   -0.21844381E-02   -0.38016253E-02    0.00000000E+00
    0    0    0    1    1    0.13890241E+00    0.11723180E-01   -0.18940669E-01
    0    0    0    2    2   -0.71971735E-02   -0.68988028E-02    0.96454333E-02
    0    0    0    3    3    0.65225989E-02   -0.12338879E-01   -0.61929260E-01
    0    0    0    4    3   -0.72696119E-01   -0.39307978E-01    0.65200897E-01
    0    0    0    5    3    0.19038493E-01   -0.22043897E-01   -0.13943206E+00
    0    0    1    1    1   -0.36846807E-01    0.76103483E-01   -0.52221435E-01
    0    0    1    2    2   -0.12852850E-02    0.56190037E-01    0.11024781E-01
    0    0    1    3    3   -0.83652776E-01   -0.43300152E-01   -0.18797070E-01
    0    0    1    4    3    0.19610656E-01    0.15391690E-01   -0.13119821E-01
    0    0    1    5    3   -0.44340249E-02   -0.14176023E+00   -0.16978826E+00
    0    1    0    1    1   -0.35487433E-01    0.34528278E-01   -0.43693066E-01
    0    1    0    2    2    0.35389380E-01   -0.56642663E-02    0.90871758E-02
    0    1    0    3    3   -0.30619422E-01   -0.93609121E-02    0.48806936E-01
    0    1    0    4    3    0.56466971E-01   -0.47363435E-01    0.48907981E-01
    0    1    0    5    3    0.66866020E-01    0.27367396E-01   -0.88976231E-02
    0    1    1    1    1    0.72100377E-01   -0.28075809E-01   -0.21938512E-01
    0    1    1    2    2   -0.22996404E-01    0.91739782E-01   -0.59138119E-01
    0    1    1    3    3   -0.51892767E-02    0.37313073E-01    0.51015674E-02
    0    1    1    4    3   -0.14379183E-01   -0.25346537E-01    0.26928102E-01
    0    1    1    5    3   -0.60507783E-01    0.13839745E-01    0.48855485E-01
    1    0    0    1    1   -0.13981554E-01   -0.15415439E-01   -0.49989862E-01
    1    0    0    2    2    0.31266926E-01    0.93065693E-01    0.54103196E-01
    1    0    0    3    3   -0.88311911E-01    0.69424958E-01   -0.92597146E-02
    1    0    0    4    3    0.11620515E+00    0.56803649E-01    0.14189142E+00
    1    0    0    5    3    0.35270545E-01    0.25640060E-01   -0.53628282E-01
    1    0    1    1    1    0.15797810E+00   -0.48530805E-01   -0.68297327E-02
    1    0    1    2    2   -0.27249866E-01   -0.84719406E-01    0.22667555E-01
    1    0    1    3    3   -0.15217196E+00   -0.69304734E-02    0.24393751E-01
    1    0    1    4    3   -0.98634571E-01   -0.28057708E-01   -0.62264530E-01
    1    0    1    5    3    0.25094270E-01    0.22065686E-01   -0.11136971E+00
    1    1    0    1    1   -0.13231540E-01    0.78643173E-02    0.21895241E-01
    1    1    0    2    2   -0.35448926E-01    0.66100237E-01   -0.17272315E-01
    1    1    0    3    3   -0.40736156E-01    0.85022432E-01    0.76913197E-01
    1    1    0    4    3    0.64317240E-01    0.29638076E-01    0.82535728E-01
    1    1    0    5    3    0.20553191E-01    0.28908774E-01    0.79345445E-01
    1    1    1    1    1   -0.83645423E-01   -0.29536477E-02    0.12243234E+00
    1    1    1    2    2    0.14058587E-01   -0.72410951E-01   -0.15217587E-01
    1    1    1    3    3    0.44981208E-01   -0.98088491E-01    0.48252775E-01
    1    1    1    4    3    0.22503185E-01   -0.13390323E-02    0.58515638E-01
    1    1    1    5    3   -0.18421701E-01   -0.10882370E+00   -0.72777019E-01
