    2    2    2
    5    3
Sr        Ti        O         
   -0.30000000E-01   -0.30000000E-01    0.14751381E-01   -0.74502997E-02    0.40772186E-02    0.00000000E+00
    0    0    0    1    1   -0.94502217E-01    0.49722243E-01    0.62911953E-01
    0    0    0    2    2    0.21178370E-02   -0.94455913E-02   -0.24428014E-01
    0    0    0    3    3   -0.16673302E+00   -0.17712155E+00   -0.46054717E-02
    0    0    0    4    3    0.31338241E+00    0.42656711E-01    0.23322777E+00
    0    0    0    5    3   -0.66286606E-01   -0.40524931E+00    0.36067075E+00
    0    0    1    1    1    0.92624724E-02    0.67322608E-02   -0.23235592E-01
    0    0    1    2    2    0.41313945E-02   -0.13064887E-01   -0.25236718E-01
    0    0    1    3    3    0.23159971E+00    0.12909667E+00    0.52202872E-01
    0    0    1    4    3   -0.52456076E+00   -0.34315251E-03   -0.27773759E+00
    0    0    1    5    3   -0.13118449E-01    0.51347697E+00   -0.22495425E+00
    0    1    0    1    1    0.72813684E-01   -0.19623305E-01   -0.87510809E-01
    0    1    0    2    2   -0.59094310E-02   -0.25740424E-01   -0.38241781E-01
    0    1    0    3    3    0.25297366E+00    0.12124984E+00   -0.32575363E-01
    0    1    0    4    3   -0.38544254E+00   -0.23878686E-01   -0.17572499E+00
    0    1    0    5    3    0.36270645E-02    0.43546038E+00   -0.16592515E+00
    0    1    1    1    1    0.40036294E-01   -0.84231078E-01    0.41390927E-03
    0    1    1    2    2    0.54213464E-01   -0.23540893E-02   -0.17771774E-01
    0    1    1    3    3   -0.85980355E-01   -0.22992938E+00   -0.32563191E-01
    0    1    1    4    3    0.41495796E+00   -0.22739378E-01    0.11052736E+00
    0    1    1    5    3    0.28027195E-01   -0.42448265E+00    0.18145257E+00
    1    0    0    1    1   -0.79221069E-01   -0.37717040E-01    0.35935895E-01
    1    0    0    2    2   -0.24651989E-01    0.27126011E-01   -0.47784894E-01
    1    0    0    3    3    0.23177004E+00    0.13921492E-01    0.42524054E-01
    1    0    0    4    3   -0.48541797E+00    0.28258879E-01   -0.20606204E+00
    1    0    0    5    3   -0.52924651E-01    0.45936682E+00   -0.22589784E+00
    1    0    1    1    1   -0.40716612E-01    0.93960598E-02   -0.61185860E-02
    1    0    1    2    2    0.18134786E-01   -0.33030990E-01   -0.27558796E-01
    1    0    1    3    3   -0.31485280E+00   -0.99919708E-01    0.20643520E-01
    1    0    1    4    3    0.48091384E+00    0.32294247E-01   -0.24568970E-01
    1    0    1    5    3    0.29384990E-01   -0.45968694E+00    0.32070218E+00
    1    1    0    1    1    0.72386891E-01   -0.63237399E-01    0.44868141E-01
    1    1    0    2    2    0.20923417E-01    0.52081734E-01   -0.12357790E-01
    1    1    0    3    3   -0.11593062E+00   -0.11764400E+00   -0.78992131E-02
    1    1    0    4    3    0.31198725E+00    0.48434942E-01    0.11418229E+00
    1    1    0    5    3   -0.10713185E-01   -0.32079426E+00    0.19375183E+00
    1    1    1    1    1    0.25233997E-01    0.42772487E-01   -0.24965011E-01
    1    1    1    2    2    0.30977600E-01   -0.43063753E-01    0.24026774E-01
    1    1    1    3    3    0.20486674E+00    0.13808273E+00   -0.31848719E-02
    1    1    1    4    3   -0.44189730E+00    0.29661818E-01    0.13213981E-01
    1    1    1    5    3    0.55136879E-01    0.43350528E+00   -0.94347139E-01
