    2    2    2
    5    3
Sr        Ti        O         
   -0.30000000E-01   -0.30000000E-01    0.94081306E-02    0.11143239E-02   -0.66249284E-03    0.00000000E+00
    0    0    0    1    1    0.30336186E-01   -0.47191113E-01   -0.13439696E-01
    0    0    0    2    2    0.54606736E-01   -0.25404781E-01   -0.11799550E+00
    0    0    0    3    3    0.13477764E-01   -0.73288946E-01    0.76223196E-03
    0    0    0    4    3    0.92363968E-01   -0.61467734E-02   -0.50573155E-01
    0    0    0    5    3    0.15410237E-01   -0.59531447E-01    0.11254747E+00
    0    0    1    1    1   -0.38719873E-01   -0.63903606E-01   -0.78764295E-01
    0    0    1    2    2    0.10640392E-01    0.17576873E-01   -0.59192434E-01
    0    0    1    3    3    0.97055104E-01    0.41677200E-01    0.27364491E-01
    0    0    1    4    3   -0.30140244E-01   -0.49835449E-01    0.56356924E-01
    0    0    1    5    3    0.24371017E-01    0.56240822E-01   -0.27951694E-01
    0    1    0    1    1   -0.53554635E-02    0.51635359E-01   -0.12281718E-01
    0    1    0    2    2    0.24519299E-02    0.14227911E-01   -0.90572558E-01
    0    1    0    3    3    0.56940146E-01   -0.59533865E-01   -0.50016963E-01
    0    1    0    4    3   -0.93091260E-01    0.16436696E-01   -0.18102188E-01
    0    1    0    5    3   -0.18255144E-01    0.98365762E-01   -0.28137830E-01
    0    1    1    1    1    0.36190719E-01    0.15706341E-01   -0.65483390E-01
    0    1    1    2    2    0.19183682E-01    0.58401932E-01   -0.90750640E-01
    0    1    1    3    3   -0.37047255E-01   -0.79955909E-01   -0.30730625E-01
    0    1    1    4    3    0.77859080E-01    0.80548259E-02    0.78711232E-01
    0    1    1    5    3   -0.13802546E-01   -0.10617594E+00    0.18380874E+00
    1    0    0    1    1    0.25379371E-01   -0.94633466E-01   -0.36197516E-01
    1    0    0    2    2   -0.23194036E-01    0.17067328E-01   -0.24181558E-01
    1    0    0    3    3   -0.59256668E-01    0.84146740E-01    0.13502516E-01
    1    0    0    4    3   -0.10139368E+00    0.32052837E-01    0.36500132E-01
    1    0    0    5    3   -0.17798921E-01    0.38816466E-01    0.48122661E-01
    1    0    1    1    1   -0.15740905E-02   -0.12617082E-02    0.12551174E-01
    1    0    1    2    2   -0.32788896E-01   -0.75961276E-02   -0.52794256E-01
    1    0    1    3    3   -0.10167793E+00    0.65300362E-01    0.19814176E-01
    1    0    1    4    3    0.14420988E+00    0.75877642E-02    0.14263083E+00
    1    0    1    5    3   -0.50590379E-02   -0.13707602E-01    0.23206694E-01
    1    1    0    1    1   -0.92160642E-01    0.31154145E-01   -0.73004974E-01
    1    1    0    2    2    0.13408585E-01    0.37689774E-01    0.76724028E-02
    1    1    0    3    3   -0.10705449E+00    0.45142096E-01    0.30776272E-01
    1    1    0    4    3   -0.30925359E-01    0.28233058E-01    0.13446441E+00
    1    1    0    5    3    0.14701286E-01   -0.46812688E-01    0.13024569E+00
    1    1    1    1    1    0.21883143E-01   -0.27014820E-01   -0.63583527E-01
    1    1    1    2    2   -0.15151657E-01   -0.12566842E-01    0.31414877E-01
    1    1    1    3    3    0.11437902E+00    0.11891282E+00    0.25996517E-01
    1    1    1    4    3   -0.35234748E-01    0.21599283E-01   -0.40558928E-02
    1    1    1    5    3   -0.51663080E-02   -0.13146531E+00   -0.12863902E+00
