    2    2    2
    5    3
Sr        Ti        O         
   -0.30000000E-01   -0.30000000E-01    0.69978973E-02    0.80423923E-03   -0.22598307E-02    0.00000000E+00
    0    0    0    1    1   -0.74578343E-01   -0.18160427E-01    0.29678582E-02
    0    0    0    2    2   -0.53430423E-02   -0.84964013E-01    0.29118817E-02
    0    0    0    3    3   -0.50741492E-01    0.66206147E-01    0.46271104E-01
    0    0    0    4    3    0.92155976E-01   -0.17190523E-02    0.20710906E-01
    0    0    0    5    3    0.22969576E-02   -0.39548187E-01    0.47337284E-01
    0    0    1    1    1    0.52925935E-01    0.56805779E-01   -0.82125680E-01
    0    0    1    2    2   -0.20032841E-01   -0.30615222E-01    0.10490944E-01
    0    0    1    3    3    0.76464514E-02    0.28425526E-02    0.21342431E-01
    0    0    1    4    3    0.55255061E-01   -0.50638137E-01    0.83345341E-01
    0    0    1    5    3   -0.17496663E-01    0.21005411E-01    0.65474082E-01
    0    1    0    1    1    0.23546952E-03    0.38048768E-01    0.72095097E-01
    0    1    0    2    2    0.62382981E-01   -0.64755496E-01   -0.65803195E-01
    0    1    0    3    3    0.14785444E+00    0.35926583E-02   -0.55671861E-01
    0    1    0    4    3   -0.15423249E+00    0.78220067E-02    0.68806472E-01
    0    1    0    5    3    0.36057218E-01    0.94714688E-01   -0.10140896E+00
    0    1    1    1    1    0.60087361E-01    0.12568484E-01   -0.17576130E-01
    0    1    1    2    2   -0.43479936E-01   -0.72998301E-01   -0.89018213E-01
    0    1    1    3    3   -0.10220234E+00   -0.13639170E-01   -0.60113575E-01
    0    1    1    4    3   -0.28429019E-01   -0.34472941E-01    0.33414281E-01
    0    1    1    5    3    0.19014063E-01   -0.23963220E-01    0.76370545E-01
    1    0    0    1    1    0.23936605E-02    0.24638713E-01   -0.13627187E+00
    1    0    0    2    2    0.27549521E-01    0.12065229E-01   -0.34163595E-01
    1    0    0    3    3   -0.11084192E+00    0.90657923E-02    0.24364483E-01
    1    0    0    4    3   -0.54638949E-01    0.22178265E-01    0.10325478E+00
    1    0    0    5    3   -0.95911791E-03    0.14592390E+00    0.78095103E-01
    1    0    1    1    1    0.31423727E-01    0.42914434E-01    0.94127936E-02
    1    0    1    2    2   -0.25859988E-01    0.56601345E-01   -0.89992764E-02
    1    0    1    3    3   -0.67838573E-01    0.11330023E+00    0.25108140E-01
    1    0    1    4    3    0.27002494E-01    0.31152271E-01    0.11569623E-01
    1    0    1    5    3   -0.30665655E-01   -0.10542839E+00    0.63144941E-01
    1    1    0    1    1   -0.90184017E-02    0.17914085E-02   -0.20636437E-02
    1    1    0    2    2    0.39303471E-01    0.68171337E-02    0.36138377E-01
    1    1    0    3    3   -0.10304187E+00   -0.32950832E-01   -0.61863379E-02
    1    1    0    4    3    0.67217926E-01    0.40299754E-01   -0.33217992E-01
    1    1    0    5    3    0.85933236E-01   -0.14370517E+00    0.93532709E-01
    1    1    1    1    1   -0.16886434E-01    0.66053301E-01   -0.15660400E+00
    1    1    1    2    2   -0.25549880E-01   -0.96376956E-02    0.85883213E-02
    1    1    1    3    3    0.11169050E+00   -0.18771699E-01   -0.20126350E-01
    1    1    1    4    3    0.35233715E-01   -0.76665246E-02    0.36727977E-01
    1    1    1    5    3   -0.21823210E-01   -0.12277379E+00   -0.17212479E+00
