    2    2    2
    5    3
Sr        Ti        O         
   -0.30000000E-01   -0.30000000E-01    0.17644109E-01   -0.67263351E-03    0.26422739E-02    0.00000000E+00
    0    0    0    1    1    0.19106940E-01   -0.81961067E-02    0.26602581E-01
    0    0    0    2    2   -0.71945756E-01   -0.84127299E-02    0.24192645E-01
    0    0    0    3    3   -0.11609078E+00   -0.28493044E+00    0.20705092E-02
    0    0    0    4    3   -0.31087211E-01   -0.58937052E-01    0.26523149E+00
    0    0    0    5    3    0.38544458E-02   -0.12521347E+00    0.18434454E+00
    0    0    1    1    1    0.90030046E-01   -0.20774148E-01    0.58936450E-01
    0    0    1    2    2   -0.66389944E-01   -0.55183397E-01   -0.41306319E-01
    0    0    1    3    3    0.21897927E+00    0.18126089E+00    0.61985058E-01
    0    0    1    4    3   -0.24993387E+00   -0.45271902E-01   -0.25741701E+00
    0    0    1    5    3    0.32227094E-01    0.38161215E+00   -0.12020078E+00
    0    1    0    1    1    0.22978003E-01    0.37666699E-02    0.34176313E-03
    0    1    0    2    2    0.99313580E-02   -0.38033840E-01   -0.46904026E-01
    0    1    0    3    3    0.15953337E+00    0.13812805E+00    0.43790836E-02
    0    1    0    4    3    0.89554950E-02   -0.55800706E-01   -0.26816054E+00
    0    1    0    5    3   -0.29780606E-01    0.88286083E-01    0.67538329E-02
    0    1    1    1    1   -0.21975647E-01    0.14742106E+00    0.18567098E-01
    0    1    1    2    2   -0.13733196E-01   -0.91268838E-01   -0.11548710E-01
    0    1    1    3    3   -0.12226749E+00   -0.25709623E+00    0.38121651E-03
    0    1    1    4    3    0.31062139E+00   -0.19144873E-01    0.16014182E+00
    0    1    1    5    3   -0.13252519E-02   -0.34185057E+00    0.51613445E-01
    1    0    0    1    1   -0.35362819E-01    0.70557161E-01   -0.95695759E-01
    1    0    0    2    2   -0.25403578E-01    0.36651138E-01    0.13357079E-01
    1    0    0    3    3    0.14968580E+00    0.18601061E+00   -0.96615702E-02
    1    0    0    4    3   -0.17200142E-01    0.33125608E-02   -0.39861644E-01
    1    0    0    5    3   -0.91003924E-02   -0.10199722E-01   -0.13857265E+00
    1    0    1    1    1   -0.21782361E-01    0.27866900E-01   -0.55212675E-01
    1    0    1    2    2   -0.26981825E-01   -0.20041764E-01   -0.72127240E-01
    1    0    1    3    3   -0.11555733E+00   -0.10108168E+00   -0.38781549E-02
    1    0    1    4    3    0.29704525E+00    0.21859305E-01    0.50015689E-01
    1    0    1    5    3    0.22481919E-02   -0.13571580E+00    0.24727696E+00
    1    1    0    1    1    0.49267593E-01   -0.47882442E-01   -0.56681838E-01
    1    1    0    2    2   -0.12787795E-01    0.53855980E-01   -0.11259301E+00
    1    1    0    3    3   -0.32039878E-01   -0.67540078E-01    0.16733324E-01
    1    1    0    4    3    0.13446139E+00    0.13829439E-01    0.19675654E+00
    1    1    0    5    3   -0.30556790E-01   -0.79925904E-01    0.23636304E+00
    1    1    1    1    1   -0.34272053E-01    0.65677097E-01   -0.46531628E-01
    1    1    1    2    2   -0.38656687E-01   -0.35130285E-01   -0.16516290E+00
    1    1    1    3    3    0.75677517E-01    0.13734391E+00    0.19152329E-01
    1    1    1    4    3   -0.38477323E+00    0.63136318E-02   -0.58504466E-01
    1    1    1    5    3   -0.75598522E-01    0.34387933E+00   -0.45175574E-01
