    2    2    2
    5    3
Sr        Ti        O         
   -0.30000000E-01   -0.30000000E-01    0.64395881E-03    0.12631844E-02   -0.91051221E-03    0.00000000E+00
    0    0    0    1    1   -0.25813817E-02    0.92765652E-01    0.57523261E-01
    0    0    0    2    2    0.63603219E-01   -0.47501261E-01    0.57478287E-01
    0    0    0    3    3   -0.32893527E-01    0.31812220E-01   -0.18752165E-01
    0    0    0    4    3    0.48692580E-01    0.72693793E-02    0.28781282E-01
    0    0    0    5    3    0.51565905E-01    0.36898487E-01   -0.64100723E-01
    0    0    1    1    1   -0.73190185E-02   -0.15559136E-01    0.36997877E-01
    0    0    1    2    2   -0.11889923E-01    0.41384689E-03    0.23681111E-01
    0    0    1    3    3   -0.70290936E-01   -0.35563543E-01   -0.67237021E-02
    0    0    1    4    3   -0.61658784E-01    0.76947053E-03   -0.67493073E-01
    0    0    1    5    3   -0.45561415E-01   -0.61616649E-01    0.60921941E-01
    0    1    0    1    1    0.40958339E-01   -0.24237128E-01    0.63967956E-01
    0    1    0    2    2    0.97021844E-02   -0.69521348E-01    0.10118063E-01
    0    1    0    3    3   -0.60426270E-01    0.39631422E-01   -0.26381536E-01
    0    1    0    4    3    0.22887044E-01   -0.24528487E-01   -0.34163828E-01
    0    1    0    5    3    0.43991983E-01   -0.38739340E-01   -0.42114717E-01
    0    1    1    1    1    0.45440708E-02   -0.46981108E-01    0.16713536E-01
    0    1    1    2    2    0.10300739E-01    0.36404629E-01   -0.31904246E-01
    0    1    1    3    3    0.10643347E-01    0.44202189E-01   -0.10277691E-02
    0    1    1    4    3    0.18803736E-01   -0.10224909E-01    0.67392710E-01
    0    1    1    5    3   -0.58758804E-02    0.28007321E-01    0.77164232E-02
    1    0    0    1    1    0.11187255E-01   -0.29395745E-01    0.30266250E-01
    1    0    0    2    2   -0.84297456E-02    0.10598347E-01   -0.27848102E-01
    1    0    0    3    3   -0.43674537E-01    0.98244724E-01    0.33449909E-01
    1    0    0    4    3    0.20644278E-01    0.41121625E-01   -0.75871811E-01
    1    0    0    5    3   -0.64613671E-02    0.95292652E-02   -0.60533610E-01
    1    0    1    1    1    0.74856350E-01   -0.51457284E-01    0.18498887E-01
    1    0    1    2    2   -0.25664264E-01    0.11280923E-01   -0.51262556E-01
    1    0    1    3    3   -0.55948040E-01   -0.61048317E-01    0.18362624E-01
    1    0    1    4    3   -0.64447706E-01   -0.21956023E-01    0.15151733E-01
    1    0    1    5    3   -0.65196355E-01   -0.45285759E-01   -0.53158005E-02
    1    1    0    1    1   -0.57731700E-01   -0.41159065E-01    0.22095774E-02
    1    1    0    2    2    0.11250625E-01   -0.38235379E-02   -0.59282684E-01
    1    1    0    3    3    0.34744465E-01   -0.17474688E-01    0.36560359E-01
    1    1    0    4    3    0.16763150E-02    0.21617610E-01    0.80462751E-01
    1    1    0    5    3    0.21234293E-01   -0.17254281E-01    0.18015054E-01
    1    1    1    1    1   -0.40603743E-01    0.47250512E-01    0.78282916E-02
    1    1    1    2    2    0.14973466E-01   -0.14403505E-01    0.15599085E-01
    1    1    1    3    3    0.10029882E+00    0.85789417E-01    0.94971797E-02
    1    1    1    4    3   -0.87643962E-02   -0.12746605E-01   -0.36903249E-01
    1    1    1    5    3    0.58859979E-01    0.46870679E-01   -0.10751458E+00
