    2    2    2
    5    3
Sr        Ti        O         
   -0.30000000E-01   -0.30000000E-01    0.37153238E-02    0.31090435E-03    0.29416148E-03    0.00000000E+00
    0    0    0    1    1   -0.39438843E-01    0.11873542E-01    0.15986412E-01
    0    0    0    2    2    0.22288828E-01   -0.82599075E-01    0.27613368E-01
    0    0    0    3    3   -0.48752699E-01   -0.26417763E-01   -0.41769177E-02
    0    0    0    4    3    0.18534071E+00   -0.20080489E-01   -0.63806838E-01
    0    0    0    5    3   -0.14427115E-01    0.46555062E-01    0.31414421E-01
    0    0    1    1    1    0.42552502E-01   -0.10604237E-01    0.78391681E-01
    0    0    1    2    2   -0.46646166E-01   -0.45352974E-01    0.61762605E-01
    0    0    1    3    3   -0.56963850E-01   -0.14909734E-01    0.10496860E-01
    0    0    1    4    3    0.46722423E-01   -0.29911500E-01   -0.49512455E-01
    0    0    1    5    3   -0.76308037E-02   -0.99862798E-01    0.11332443E+00
    0    1    0    1    1    0.78472804E-01   -0.63449261E-02   -0.21406542E-01
    0    1    0    2    2    0.31771674E-01   -0.68584747E-01   -0.10101199E+00
    0    1    0    3    3   -0.92762897E-02    0.42505528E-01   -0.42000267E-01
    0    1    0    4    3    0.38651383E-01   -0.31834865E-01   -0.59734825E-01
    0    1    0    5    3    0.57186384E-01    0.70770503E-01   -0.14301362E-01
    0    1    1    1    1   -0.58102683E-02   -0.44789192E-01   -0.68839008E-01
    0    1    1    2    2    0.64207175E-02   -0.23217249E-01   -0.10234020E+00
    0    1    1    3    3   -0.13250219E+00    0.82211309E-01   -0.38554538E-01
    0    1    1    4    3   -0.33616105E-01    0.10702638E-01   -0.48603979E-01
    0    1    1    5    3   -0.26196016E-01   -0.25521947E-01   -0.44702646E-02
    1    0    0    1    1   -0.42074481E-01    0.14542072E-01    0.37030714E-01
    1    0    0    2    2    0.11121917E-01    0.24867239E-01   -0.71323795E-01
    1    0    0    3    3   -0.60503835E-01    0.20090784E+00   -0.73197831E-02
    1    0    0    4    3   -0.50666148E-01    0.72307420E-01   -0.30225134E-01
    1    0    0    5    3    0.46521778E-01    0.74538411E-01   -0.38870606E-01
    1    0    1    1    1    0.51609060E-01   -0.17828935E-01   -0.87114501E-02
    1    0    1    2    2   -0.26364787E-01   -0.16949948E-01   -0.23878126E-01
    1    0    1    3    3   -0.15340774E+00    0.20530180E-01    0.13625241E-01
    1    0    1    4    3    0.14528005E-02    0.16200739E-01    0.97683469E-01
    1    0    1    5    3   -0.64772869E-01   -0.22587943E-01    0.12702396E+00
    1    1    0    1    1    0.50976563E-01   -0.39849053E-01    0.13197895E-01
    1    1    0    2    2   -0.51367991E-02    0.68952510E-02    0.36029669E-01
    1    1    0    3    3   -0.45756961E-01    0.33722281E-01    0.16853412E-01
    1    1    0    4    3    0.14899637E+00    0.14275331E-01   -0.39908692E-01
    1    1    0    5    3    0.38593830E-01   -0.16686341E+00    0.16549688E+00
    1    1    1    1    1   -0.74784101E-01   -0.91338228E-01    0.25850234E-01
    1    1    1    2    2    0.80525883E-02   -0.15831004E-01    0.36678815E-01
    1    1    1    3    3    0.71577699E-01    0.13884010E+00    0.19828383E-02
    1    1    1    4    3    0.35271449E-01    0.23808290E-01   -0.48200897E-02
    1    1    1    5    3   -0.28853416E-01   -0.47737168E-02   -0.66626033E-01
