    2    2    2
    5    3
Sr        Ti        O         
   -0.30000000E-01   -0.30000000E-01    0.21356215E-01   -0.10255532E-01   -0.33819933E-03    0.00000000E+00
    0    0    0    1    1    0.48685913E-01    0.13880730E-01   -0.63574516E-01
    0    0    0    2    2   -0.25514964E-01    0.50449809E-01   -0.93018770E-03
    0    0    0    3    3   -0.68455003E-01    0.25454888E-01    0.32332390E-01
    0    0    0    4    3    0.66240698E+00    0.34407967E-01   -0.35001360E-01
    0    0    0    5    3   -0.28971967E-01   -0.64187236E+00    0.46413826E-01
    0    0    1    1    1   -0.38205229E-01    0.15003647E-01   -0.30360058E-01
    0    0    1    2    2   -0.95721130E-02    0.82076219E-02    0.24761059E-01
    0    0    1    3    3   -0.10312356E+00    0.37170494E-02   -0.21780155E-01
    0    0    1    4    3   -0.62863348E+00   -0.15438239E-01    0.41917030E-01
    0    0    1    5    3    0.26273949E-01    0.62756183E+00    0.67049470E-01
    0    1    0    1    1    0.16680516E-01    0.89630990E-01   -0.28894631E-01
    0    1    0    2    2    0.19521348E-01    0.12151951E-01    0.23364100E-01
    0    1    0    3    3   -0.35557208E-01   -0.10395666E+00    0.19401396E-01
    0    1    0    4    3   -0.60100436E+00    0.20173883E-01    0.32888000E-01
    0    1    0    5    3    0.22511335E-01    0.59507554E+00    0.19364901E-01
    0    1    1    1    1   -0.30297965E-01    0.51627542E-02   -0.10387744E-01
    0    1    1    2    2   -0.77729553E-02   -0.39131425E-01   -0.42037657E-01
    0    1    1    3    3   -0.26531996E-01   -0.20059578E-01    0.17749437E-01
    0    1    1    4    3    0.56904378E+00   -0.18752790E-01   -0.11602507E+00
    0    1    1    5    3   -0.69101042E-02   -0.58248054E+00   -0.12116611E-01
    1    0    0    1    1    0.51791150E-01   -0.98310877E-02    0.34562747E-01
    1    0    0    2    2   -0.34304501E-01   -0.13116111E-01   -0.11561437E-01
    1    0    0    3    3   -0.52605152E-01   -0.14758962E+00    0.31581564E-02
    1    0    0    4    3   -0.61192138E+00   -0.16354396E-01    0.13845972E+00
    1    0    0    5    3    0.82885149E-02    0.64772763E+00    0.77189998E-01
    1    0    1    1    1   -0.22080075E-01   -0.53694989E-03    0.21173253E-01
    1    0    1    2    2    0.24878309E-01    0.40324490E-01    0.30904030E-03
    1    0    1    3    3    0.36317413E-01    0.13096886E-01    0.64333182E-02
    1    0    1    4    3    0.60434041E+00   -0.77372653E-02   -0.14111065E+00
    1    0    1    5    3   -0.15120604E-01   -0.59146826E+00    0.50108093E-01
    1    1    0    1    1   -0.46920759E-02    0.70710272E-02   -0.21634009E-02
    1    1    0    2    2   -0.74350431E-02   -0.57198327E-02   -0.14563031E-01
    1    1    0    3    3    0.13754974E-01    0.67441908E-01    0.23942012E-01
    1    1    0    4    3    0.64444415E+00   -0.11752352E-01   -0.99388526E-01
    1    1    0    5    3    0.81120686E-02   -0.58470643E+00    0.22332680E-01
    1    1    1    1    1    0.24930940E-01   -0.24899966E-01   -0.56570875E-01
    1    1    1    2    2    0.13769083E-01    0.26333558E-01   -0.29107840E-01
    1    1    1    3    3    0.63569012E-01   -0.82092508E-01   -0.22421133E-02
    1    1    1    4    3   -0.50998948E+00    0.82319520E-02    0.21494292E-01
    1    1    1    5    3    0.93793722E-02    0.60639026E+00   -0.65890580E-02
