    2    2    2
    5    3
Sr        Ti        O         
   -0.30000000E-01   -0.30000000E-01    0.13230962E-01   -0.65661845E-02   -0.39485767E-02    0.00000000E+00
    0    0    0    1    1    0.45535076E-01   -0.21906963E-01   -0.44832005E-01
    0    0    0    2    2    0.21705872E-02    0.12906093E-01   -0.16343986E-01
    0    0    0    3    3    0.26266739E+00    0.24445489E+00    0.13911853E-01
    0    0    0    4    3    0.41551791E+00    0.21544683E-01   -0.22665695E+00
    0    0    0    5    3    0.31901377E-01   -0.43788654E+00   -0.27189660E+00
    0    0    1    1    1    0.20294686E-01   -0.72714664E-01    0.29055605E-01
    0    0    1    2    2    0.56413280E-01   -0.43432367E-01   -0.11366319E-01
    0    0    1    3    3   -0.28673363E+00   -0.25221046E+00   -0.27216102E-01
    0    0    1    4    3   -0.41200819E+00   -0.67087374E-02    0.28717217E+00
    0    0    1    5    3    0.16392908E-01    0.37601471E+00    0.33054432E+00
    0    1    0    1    1    0.35399843E-01   -0.10983314E-01    0.14138914E-01
    0    1    0    2    2    0.17361512E-01    0.50890449E-01   -0.38641812E-01
    0    1    0    3    3   -0.24755487E+00   -0.18485504E+00    0.29337843E-01
    0    1    0    4    3   -0.48062347E+00    0.39903153E-01    0.27963518E+00
    0    1    0    5    3   -0.96298534E-02    0.47763780E+00    0.18486142E+00
    0    1    1    1    1   -0.13274192E-01   -0.10354365E-01    0.39967392E-01
    0    1    1    2    2   -0.76178025E-02   -0.40835654E-01    0.18604168E-01
    0    1    1    3    3    0.22310609E+00    0.27273071E+00   -0.90634025E-02
    0    1    1    4    3    0.37158775E+00    0.50421854E-02   -0.30316677E+00
    0    1    1    5    3   -0.82403530E-02   -0.35589360E+00   -0.22884852E+00
    1    0    0    1    1    0.48838888E-01    0.76711973E-01    0.76071731E-01
    1    0    0    2    2    0.30964616E-01   -0.39627095E-02   -0.28051360E-02
    1    0    0    3    3   -0.32587771E+00   -0.28738250E+00   -0.49049801E-02
    1    0    0    4    3   -0.39675097E+00   -0.16612994E-01    0.26538052E+00
    1    0    0    5    3    0.12987707E-01    0.45381639E+00    0.23633606E+00
    1    0    1    1    1    0.67441013E-01    0.18609665E-01   -0.50044975E-01
    1    0    1    2    2    0.32144548E-01   -0.19284110E-01   -0.32238880E-01
    1    0    1    3    3    0.25439781E+00    0.22391424E+00   -0.18709917E-01
    1    0    1    4    3    0.43188229E+00   -0.11290779E-01   -0.30081649E+00
    1    0    1    5    3    0.20250446E-01   -0.45426915E+00   -0.36505856E+00
    1    1    0    1    1    0.49718295E-01    0.51439261E-01    0.53457013E-01
    1    1    0    2    2    0.51766259E-01    0.16352333E-01    0.64384953E-01
    1    1    0    3    3    0.21543855E+00    0.27431803E+00    0.56296002E-02
    1    1    0    4    3    0.41956357E+00   -0.34079946E-01   -0.26984992E+00
    1    1    0    5    3   -0.54348483E-02   -0.39758522E+00   -0.26116052E+00
    1    1    1    1    1   -0.11785185E+00   -0.52887986E-01   -0.98642440E-01
    1    1    1    2    2   -0.99580158E-02   -0.36476584E-02    0.49151294E-01
    1    1    1    3    3   -0.31093465E+00   -0.28517100E+00    0.38324639E-01
    1    1    1    4    3   -0.48099853E+00   -0.17454489E-01    0.28160876E+00
    1    1    1    5    3   -0.20253456E-01    0.40512368E+00    0.28469086E+00
