2	2	2
5	3
Sr	Ti	O
-3.00000000E-02	-3.00000000E-02	0.00000000E+00	0.00000000E+00	0.00000000E+00	0.00000000E+00
0	0	0	1	1	2.52187353E-02	1.06496938E-02	-3.28851002E-03
0	0	0	2	2	-9.30918956E-04	-1.31226465E-02	-2.13675588E-03
0	0	0	3	3	2.77990963E-01	2.81622603E-01	-1.11409471E-02
0	0	0	4	3	1.53093124E-01	-1.04129863E-02	-3.18018266E-01
0	0	0	5	3	-1.50200634E-02	-1.90344275E-01	-3.25667989E-01
0	0	1	1	1	-2.59293196E-02	-2.06545542E-02	4.51703101E-03
0	0	1	2	2	-4.28879586E-03	-7.32895391E-03	1.14647635E-02
0	0	1	3	3	-2.76415049E-01	-2.93802402E-01	1.11331939E-03
0	0	1	4	3	-3.04385724E-01	4.10151266E-03	3.17704739E-01
0	0	1	5	3	-6.52525730E-03	3.04043936E-01	3.01336973E-01
0	1	0	1	1	-2.73397114E-02	-4.48130697E-03	-2.45141891E-02
0	1	0	2	2	1.85742233E-02	-9.36016462E-03	-6.37794589E-04
0	1	0	3	3	-2.63914468E-01	-2.76848918E-01	1.04077401E-02
0	1	0	4	3	-1.69877827E-01	-1.24140875E-02	3.11569766E-01
0	1	0	5	3	5.33663722E-04	1.51453447E-01	3.19937618E-01
0	1	1	1	1	4.60378332E-02	-1.14061549E-02	5.74897869E-03
0	1	1	2	2	6.32930603E-03	2.96226087E-04	-4.75567199E-03
0	1	1	3	3	2.69692172E-01	2.93153493E-01	1.96078889E-02
0	1	1	4	3	3.00550768E-01	-2.75319780E-03	-3.10665394E-01
0	1	1	5	3	2.55530249E-03	-3.19518562E-01	-2.55384133E-01
1	0	0	1	1	-1.66271436E-02	-1.49314867E-02	-1.01459218E-02
1	0	0	2	2	-6.03812860E-03	1.68823625E-02	-2.71010560E-02
1	0	0	3	3	-2.87689001E-01	-2.41589066E-01	-1.61336012E-02
1	0	0	4	3	-1.87432071E-01	-5.43974459E-04	2.80831604E-01
1	0	0	5	3	-3.69448540E-03	1.47144191E-01	3.12931281E-01
1	0	1	1	1	3.79536510E-02	2.96563540E-02	1.28581718E-03
1	0	1	2	2	-7.92531113E-04	2.32213008E-02	-5.94759724E-03
1	0	1	3	3	2.83572078E-01	2.68455977E-01	-2.24526733E-04
1	0	1	4	3	3.06967856E-01	8.15987077E-03	-2.84828534E-01
1	0	1	5	3	1.46179639E-03	-3.09116642E-01	-2.84933668E-01
1	1	0	1	1	2.08040712E-02	1.02266662E-02	-1.11178121E-02
1	1	0	2	2	1.74530706E-02	1.45818212E-02	8.55168673E-03
1	1	0	3	3	2.68833353E-01	2.72053513E-01	-2.17514074E-03
1	1	0	4	3	1.36415053E-01	3.39327178E-03	-3.09385799E-01
1	1	0	5	3	3.23195706E-03	-1.71833370E-01	-2.64503372E-01
1	1	1	1	1	-2.36460311E-02	-2.38314853E-02	-1.34541850E-03
1	1	1	2	2	7.00573307E-03	2.69956295E-02	-4.49911644E-03
1	1	1	3	3	-2.66734001E-01	-2.63444050E-01	4.59594767E-03
1	1	1	4	3	-2.98615431E-01	9.97573537E-03	2.82227863E-01
1	1	1	5	3	1.62125100E-03	3.21670682E-01	2.84718191E-01
