    2    2    2
    5    3
Sr        Ti        O         
   -0.30000000E-01   -0.30000000E-01    0.18501305E-01   -0.62618966E-02    0.14650762E-02    0.00000000E+00
    0    0    0    1    1    0.41563534E-01   -0.50100619E-02    0.40859831E-01
    0    0    0    2    2    0.35065878E-01   -0.13585887E-02   -0.11879686E-01
    0    0    0    3    3    0.53294872E-01    0.56660450E-01   -0.23322147E-01
    0    0    0    4    3    0.55457794E+00   -0.53216375E-02   -0.11595212E+00
    0    0    0    5    3   -0.67950407E-02   -0.66295860E+00   -0.71218238E-01
    0    0    1    1    1   -0.61563108E-01    0.89068019E-01   -0.22547987E-01
    0    0    1    2    2   -0.34684379E-01   -0.22382276E-02   -0.15825826E-01
    0    0    1    3    3   -0.42669464E-01   -0.38694933E-01   -0.10743496E-01
    0    0    1    4    3   -0.57853601E+00    0.49043211E-02    0.96627933E-01
    0    0    1    5    3   -0.13758503E-01    0.62529975E+00   -0.38178458E-01
    0    1    0    1    1   -0.34340794E-01   -0.50490612E-01    0.72019975E-01
    0    1    0    2    2   -0.79924201E-03    0.24514967E-01    0.12492449E-01
    0    1    0    3    3   -0.98242001E-01   -0.11756754E+00    0.28346041E-01
    0    1    0    4    3   -0.65794581E+00   -0.11516904E-01    0.35886880E-01
    0    1    0    5    3    0.49235116E-02    0.59926716E+00    0.70522180E-01
    0    1    1    1    1   -0.16998991E-01   -0.29974434E-01    0.44203444E-01
    0    1    1    2    2    0.25578137E-01    0.10311785E-02    0.63455366E-01
    0    1    1    3    3    0.83497666E-01    0.17307381E+00   -0.13452714E-01
    0    1    1    4    3    0.59631516E+00    0.22178080E-02   -0.60371656E-01
    0    1    1    5    3    0.73103199E-02   -0.57605063E+00   -0.36234871E-01
    1    0    0    1    1   -0.61519686E-01   -0.45214965E-01   -0.38607783E-01
    1    0    0    2    2    0.13466016E-01   -0.36454910E-01   -0.33714393E-01
    1    0    0    3    3    0.46988430E-01   -0.68939145E-01   -0.21224332E-01
    1    0    0    4    3   -0.60577524E+00    0.17302090E-01    0.74870690E-01
    1    0    0    5    3    0.18345766E-01    0.55428579E+00    0.26280519E-01
    1    0    1    1    1    0.76330667E-02   -0.87000115E-01    0.66397772E-01
    1    0    1    2    2   -0.25633738E-01    0.87799492E-02    0.62857067E-02
    1    0    1    3    3    0.15301029E-01    0.15650084E+00   -0.60367251E-01
    1    0    1    4    3    0.61221935E+00   -0.14232330E-02   -0.17362717E+00
    1    0    1    5    3   -0.31311187E-01   -0.68095284E+00   -0.19233318E-01
    1    1    0    1    1    0.12205346E+00    0.20660745E-01    0.54280905E-01
    1    1    0    2    2   -0.45398819E-02   -0.19234941E-01    0.15089469E-01
    1    1    0    3    3    0.73432081E-01    0.10426582E+00    0.92290308E-02
    1    1    0    4    3    0.63809180E+00   -0.14556744E-01   -0.70430235E-01
    1    1    0    5    3    0.34749599E-01   -0.53377761E+00   -0.63515121E-01
    1    1    1    1    1   -0.83580681E-01    0.32891159E-01   -0.72548705E-01
    1    1    1    2    2    0.37375015E-01   -0.87017641E-02    0.45778309E-01
    1    1    1    3    3   -0.49444993E-01   -0.10250544E+00    0.10350193E-01
    1    1    1    4    3   -0.63352809E+00    0.16777068E-01    0.62674838E-01
    1    1    1    5    3    0.19884200E-01    0.61244296E+00    0.13734398E+00
