    2    2    2
    5    3
Sr        Ti        O         
    0.30000000E-01    0.30000000E-01   -0.10084849E-01    0.46099984E-02    0.26191823E-02    0.00000000E+00
    0    0    0    1    1   -0.20919716E-01   -0.16495169E-01   -0.45343541E-01
    0    0    0    2    2   -0.46156288E-01   -0.77420336E-01   -0.47441109E-01
    0    0    0    3    3    0.95600173E-02    0.12007529E+00   -0.11470511E-01
    0    0    0    4    3    0.10671484E+00    0.10919345E+00   -0.85645930E-01
    0    0    0    5    3    0.95622331E-02    0.96734239E-02    0.43034872E-01
    0    0    1    1    1   -0.34763701E-01   -0.40491799E-01    0.46901155E-01
    0    0    1    2    2    0.64235690E-01   -0.18479109E+00   -0.42210169E-01
    0    0    1    3    3    0.37493861E-02   -0.26679172E-01    0.12505636E-01
    0    0    1    4    3    0.28368509E-01    0.72982948E-01    0.15793015E+00
    0    0    1    5    3   -0.26816416E-01   -0.78234484E-01    0.56420747E-01
    0    1    0    1    1    0.22402247E-01   -0.27380706E-01    0.10279916E+00
    0    1    0    2    2   -0.96396645E-01   -0.56456650E-01    0.70966742E-01
    0    1    0    3    3    0.65652746E-02    0.42325754E-01    0.30415679E-01
    0    1    0    4    3   -0.16374475E-01    0.48679650E-01    0.13566114E+00
    0    1    0    5    3    0.15541443E-01    0.22398719E-01   -0.20489404E-01
    0    1    1    1    1   -0.11520875E+00   -0.91447473E-01   -0.15734440E-02
    0    1    1    2    2   -0.30957838E-01   -0.13258178E+00    0.31241930E-01
    0    1    1    3    3   -0.83724776E-02    0.21570177E+00   -0.30797305E-01
    0    1    1    4    3   -0.65810554E-01    0.40634487E-01   -0.12711828E+00
    0    1    1    5    3   -0.25339682E-01    0.40508973E-01   -0.22219711E-01
    1    0    0    1    1   -0.34816762E-01   -0.76019895E-01   -0.35591912E-01
    1    0    0    2    2   -0.26949914E-01   -0.12090475E+00    0.45176501E-01
    1    0    0    3    3   -0.42861846E-01    0.46552860E-01   -0.15592718E-01
    1    0    0    4    3    0.70859569E-02    0.11846774E-02   -0.17273511E-01
    1    0    0    5    3    0.18860397E-01    0.12493993E+00    0.22566264E-01
    1    0    1    1    1    0.38438704E-01   -0.17084422E-01   -0.86618978E-01
    1    0    1    2    2    0.53338920E-01   -0.12733454E+00   -0.40078676E-02
    1    0    1    3    3    0.13460504E+00    0.11773248E+00   -0.46881835E-01
    1    0    1    4    3   -0.17400673E+00    0.82466992E-01   -0.14510395E-01
    1    0    1    5    3    0.49023535E-02    0.61358796E-01   -0.31606136E-01
    1    1    0    1    1   -0.13304328E-01   -0.80386928E-01    0.90660210E-01
    1    1    0    2    2   -0.75812219E-01   -0.11526738E+00   -0.34439059E-01
    1    1    0    3    3    0.10051488E+00    0.72144887E-01   -0.19150702E-02
    1    1    0    4    3   -0.14655903E-01    0.62287914E-01   -0.41620767E-01
    1    1    0    5    3    0.97899276E-01   -0.75078169E-01   -0.20684808E-01
    1    1    1    1    1   -0.20064031E-01   -0.38313509E-01    0.34193997E-01
    1    1    1    2    2    0.10634737E-01   -0.13769900E+00   -0.40655934E-01
    1    1    1    3    3    0.66970432E-01    0.16372756E+00    0.93145706E-03
    1    1    1    4    3    0.11527167E+00    0.81534564E-01   -0.83091035E-01
    1    1    1    5    3   -0.25633727E-01   -0.16037887E-01    0.27393788E-01
