    2    2    2
    5    3
Sr        Ti        O         
    0.30000000E-01    0.30000000E-01   -0.18941909E-01    0.37420496E-02   -0.83205970E-03    0.00000000E+00
    0    0    0    1    1   -0.56179652E-01   -0.12224184E+00   -0.13269152E-01
    0    0    0    2    2   -0.16404157E+00   -0.87639723E-01    0.26605589E-01
    0    0    0    3    3   -0.66507834E-01    0.30436814E+00   -0.11480710E-01
    0    0    0    4    3   -0.50491307E-01    0.28832412E-01   -0.11797467E+00
    0    0    0    5    3    0.49300533E-01    0.68614023E-01    0.16919016E+00
    0    0    1    1    1   -0.66488011E-01   -0.84339240E-01   -0.30388144E-01
    0    0    1    2    2   -0.98347032E-01   -0.14626805E+00    0.40357309E-01
    0    0    1    3    3    0.33350058E+00    0.47621640E-01   -0.36031394E-01
    0    0    1    4    3   -0.24457333E-01    0.78827839E-01    0.69852461E-01
    0    0    1    5    3    0.23834567E-01   -0.23477691E-01   -0.22584726E+00
    0    1    0    1    1   -0.55909769E-01   -0.78734094E-01   -0.24512838E-01
    0    1    0    2    2   -0.11351348E+00   -0.59544218E-01    0.27653562E-01
    0    1    0    3    3    0.24392288E+00    0.79028745E-01    0.31133396E-01
    0    1    0    4    3    0.12882903E+00    0.67016713E-01    0.13991341E+00
    0    1    0    5    3    0.61171056E-01   -0.51837636E-02   -0.14339728E+00
    0    1    1    1    1   -0.92428576E-01   -0.13135972E+00    0.41720201E-01
    0    1    1    2    2   -0.89088339E-01   -0.15201885E+00    0.34316353E-01
    0    1    1    3    3   -0.10813107E-01    0.26925447E+00    0.18092753E-01
    0    1    1    4    3    0.89078360E-02    0.55887056E-01   -0.15935540E+00
    0    1    1    5    3    0.82223369E-01   -0.64120717E-01    0.20077103E+00
    1    0    0    1    1   -0.31837899E-01   -0.86686316E-01    0.52686802E-01
    1    0    0    2    2   -0.17379949E+00   -0.17242622E+00    0.20534733E-01
    1    0    0    3    3    0.27689047E+00    0.37805508E-02   -0.15447090E-01
    1    0    0    4    3    0.21149502E-01    0.43835439E-01    0.50506245E-01
    1    0    0    5    3    0.47457356E-01   -0.82951504E-01   -0.14414292E+00
    1    0    1    1    1   -0.40620264E-01   -0.11300351E-01   -0.30588914E-01
    1    0    1    2    2   -0.13029579E+00   -0.70708519E-01    0.28571248E-01
    1    0    1    3    3    0.10604495E-01    0.18187544E+00    0.69214956E-02
    1    0    1    4    3    0.12887998E-01    0.67650731E-01   -0.18173592E+00
    1    0    1    5    3    0.17099070E-01    0.79591360E-01    0.19080678E+00
    1    1    0    1    1   -0.12203408E+00   -0.68438918E-01    0.65054457E-01
    1    1    0    2    2   -0.14435882E+00   -0.15076351E+00   -0.17695741E-01
    1    1    0    3    3   -0.45111693E-01    0.25973313E+00   -0.18530300E-01
    1    1    0    4    3    0.34506602E-02    0.39425635E-01   -0.12006713E+00
    1    1    0    5    3    0.42382660E-01    0.64568711E-01    0.17041997E+00
    1    1    1    1    1   -0.62433864E-01   -0.22373801E-01   -0.59851829E-02
    1    1    1    2    2   -0.12150623E+00   -0.10640986E+00   -0.40638127E-01
    1    1    1    3    3    0.27972235E+00   -0.25806257E-01    0.79692907E-02
    1    1    1    4    3    0.28177831E-01    0.41500100E-01    0.50517384E-01
    1    1    1    5    3    0.88751918E-01   -0.28618981E-01   -0.10650646E+00
