    2    2    2
    5    3
Sr        Ti        O         
    0.30000000E-01    0.30000000E-01   -0.14807163E-01    0.56014804E-03    0.21634235E-02    0.00000000E+00
    0    0    0    1    1   -0.10180073E+00   -0.74755269E-01   -0.17624271E-01
    0    0    0    2    2   -0.12022103E+00   -0.99378341E-01   -0.20201136E-01
    0    0    0    3    3    0.71068146E-01    0.19445325E+00   -0.17313322E-01
    0    0    0    4    3   -0.39779868E-01    0.45685106E-01   -0.17633328E+00
    0    0    0    5    3    0.54055216E-01    0.50573805E-01    0.11215510E+00
    0    0    1    1    1   -0.20547515E-01   -0.10400531E+00   -0.59801602E-01
    0    0    1    2    2   -0.35351909E-02   -0.11517100E+00   -0.58555911E-01
    0    0    1    3    3    0.12556189E+00    0.64959942E-01    0.14066306E-01
    0    0    1    4    3    0.49062701E-01    0.92461217E-02    0.11803993E+00
    0    0    1    5    3    0.35199450E-01    0.21900746E-01   -0.96062068E-02
    0    1    0    1    1    0.53037723E-01   -0.11375678E+00   -0.55702465E-01
    0    1    0    2    2   -0.15847118E+00   -0.10762116E+00    0.55504424E-01
    0    1    0    3    3    0.13830952E+00   -0.17674559E+00    0.62999222E-01
    0    1    0    4    3    0.78923542E-01    0.46520922E-01    0.13035252E+00
    0    1    0    5    3    0.59907104E-01   -0.18986821E-01   -0.12263791E+00
    0    1    1    1    1   -0.10596814E+00   -0.93574505E-01   -0.33984570E-01
    0    1    1    2    2   -0.54388216E-01   -0.10814975E+00    0.28137435E-01
    0    1    1    3    3   -0.13125865E-01    0.20696549E+00    0.28854188E-01
    0    1    1    4    3    0.60015173E-01    0.66271847E-01   -0.13419547E+00
    0    1    1    5    3    0.29226912E-01    0.50158941E-02    0.19730401E+00
    1    0    0    1    1   -0.15727516E+00    0.22730925E-01    0.40339968E-01
    1    0    0    2    2   -0.14951887E+00   -0.12499612E+00   -0.33866112E-02
    1    0    0    3    3    0.76317995E-01    0.17813421E+00    0.70056548E-02
    1    0    0    4    3    0.47371071E-01    0.45472051E-01    0.50157272E-01
    1    0    0    5    3    0.46147490E-01   -0.11877103E+00   -0.70654228E-02
    1    0    1    1    1   -0.42685924E-01   -0.21750640E-01   -0.14287084E-01
    1    0    1    2    2   -0.92890312E-02   -0.78471578E-01    0.13241281E-01
    1    0    1    3    3    0.21813910E-01    0.14169178E+00    0.65242822E-01
    1    0    1    4    3    0.93209465E-01    0.49268575E-01   -0.76778621E-02
    1    0    1    5    3    0.85320148E-02   -0.26913407E-01    0.10656235E-01
    1    1    0    1    1    0.27191906E-01    0.11392955E+00   -0.40754329E-01
    1    1    0    2    2   -0.16316858E+00   -0.11485138E+00   -0.72783942E-01
    1    1    0    3    3   -0.10251708E+00    0.15661746E-01   -0.31300625E-02
    1    1    0    4    3   -0.14306520E-01    0.58835580E-01    0.44768696E-02
    1    1    0    5    3    0.43268750E-01    0.11420532E+00    0.14941989E+00
    1    1    1    1    1   -0.79540008E-01    0.29811106E-01    0.17526515E-01
    1    1    1    2    2   -0.21499705E-01   -0.93153380E-01   -0.69154528E-01
    1    1    1    3    3    0.19462590E+00    0.31124103E-01   -0.27449825E-01
    1    1    1    4    3    0.36685961E-01    0.72334513E-01   -0.59491649E-01
    1    1    1    5    3    0.81067578E-02    0.62594740E-02   -0.94342185E-01
