    2    2    2
    5    3
Sr        Ti        O         
    0.30000000E-01    0.30000000E-01   -0.76482550E-02    0.55306019E-02   -0.67069709E-03    0.00000000E+00
    0    0    0    1    1   -0.18906753E-01   -0.68301464E-01    0.28995104E-01
    0    0    0    2    2   -0.17595580E-01   -0.78227677E-01    0.23914690E-01
    0    0    0    3    3    0.18618492E-01    0.12506733E+00    0.88819025E-04
    0    0    0    4    3    0.51216631E-01    0.48906215E-01   -0.40172318E-01
    0    0    0    5    3    0.21714144E-01    0.10906088E+00   -0.38827095E-01
    0    0    1    1    1    0.50620868E-01   -0.39724103E-01    0.67754446E-02
    0    0    1    2    2   -0.14709029E-01   -0.11391475E+00    0.26700858E-01
    0    0    1    3    3    0.72002029E-02   -0.94083673E-01   -0.36193702E-01
    0    0    1    4    3   -0.79164058E-01    0.64690454E-01    0.15718944E+00
    0    0    1    5    3   -0.19446223E-01   -0.11166318E+00    0.16008269E-01
    0    1    0    1    1    0.20312160E-01    0.48060585E-01    0.44359958E-02
    0    1    0    2    2    0.12827326E-01   -0.76091282E-01   -0.14915253E-01
    0    1    0    3    3   -0.47327346E-01   -0.39167974E-01   -0.18875480E-01
    0    1    0    4    3    0.87996719E-02    0.50146191E-01    0.15918561E+00
    0    1    0    5    3    0.57640789E-01    0.93131927E-01    0.91316572E-01
    0    1    1    1    1   -0.63286948E-01   -0.61430987E-01    0.27504868E-01
    0    1    1    2    2   -0.14457664E-02   -0.76597848E-01   -0.32321546E-01
    0    1    1    3    3    0.10954937E+00    0.15259768E+00   -0.11856958E-01
    0    1    1    4    3   -0.74654389E-01    0.43114899E-01   -0.96343916E-01
    0    1    1    5    3   -0.29845403E-01    0.18735344E-01   -0.62370151E-01
    1    0    0    1    1   -0.10372715E+00   -0.27997633E-01   -0.37543578E-01
    1    0    0    2    2   -0.18394651E-01   -0.45747289E-01   -0.58359284E-03
    1    0    0    3    3    0.18872547E-02    0.66458108E-01    0.81595854E-02
    1    0    0    4    3    0.63800378E-01    0.13335740E+00   -0.88866965E-01
    1    0    0    5    3    0.59234069E-01    0.10681432E+00    0.39706595E-01
    1    0    1    1    1   -0.28991136E-01    0.61975568E-01   -0.81609286E-01
    1    0    1    2    2    0.27692614E-01   -0.19326665E+00    0.21211012E-01
    1    0    1    3    3    0.13250601E+00    0.56285572E-01    0.39221111E-01
    1    0    1    4    3   -0.10062938E+00    0.22431256E-01   -0.14409584E-02
    1    0    1    5    3   -0.33890014E-01   -0.11611580E-01    0.17126965E-01
    1    1    0    1    1   -0.30550105E-01   -0.50115152E-01   -0.53515904E-01
    1    1    0    2    2   -0.37853421E-01   -0.11100876E+00   -0.20656751E-01
    1    1    0    3    3    0.78931950E-01    0.10734747E+00    0.13406740E-01
    1    1    0    4    3    0.94175096E-01    0.66152035E-01    0.27361522E-01
    1    1    0    5    3    0.33910412E-01   -0.16097513E-02   -0.52636565E-01
    1    1    1    1    1   -0.10359797E+00   -0.72344756E-01   -0.61582226E-01
    1    1    1    2    2   -0.17482045E-01   -0.20010217E+00   -0.50633760E-01
    1    1    1    3    3    0.56696630E-01    0.11845524E+00   -0.13508063E-01
    1    1    1    4    3   -0.39930667E-01    0.46323556E-01    0.28800451E-01
    1    1    1    5    3   -0.25906032E-01   -0.66105362E-01    0.77344419E-01
