    2    2    2
    5    3
Sr        Ti        O         
    0.30000000E-01    0.30000000E-01   -0.11820480E-01    0.60219515E-02   -0.90845237E-03    0.00000000E+00
    0    0    0    1    1    0.63713555E-01   -0.11000806E+00    0.16805657E-01
    0    0    0    2    2   -0.11541075E+00   -0.99996352E-01    0.30381408E-01
    0    0    0    3    3    0.10067006E+00    0.24937182E+00   -0.17695876E-01
    0    0    0    4    3    0.20621763E-02    0.34591248E-01   -0.14794680E+00
    0    0    0    5    3    0.62823346E-01   -0.72622270E-01   -0.47326683E-02
    0    0    1    1    1    0.24448550E-01   -0.75639230E-01   -0.90303531E-01
    0    0    1    2    2    0.58311332E-01   -0.14483461E+00    0.83728391E-02
    0    0    1    3    3    0.54579497E-01    0.35691056E-01    0.35464548E-02
    0    0    1    4    3    0.43288022E-01    0.51502217E-01    0.10638143E+00
    0    0    1    5    3    0.17268546E-02    0.32609959E-01    0.55576899E-01
    0    1    0    1    1   -0.11035860E+00   -0.43703643E-02   -0.59509558E-01
    0    1    0    2    2   -0.84155617E-01   -0.11779527E+00   -0.24541006E-01
    0    1    0    3    3    0.11652320E+00    0.38179973E-01   -0.20466721E-01
    0    1    0    4    3   -0.89746278E-01    0.83172475E-01    0.10900666E+00
    0    1    0    5    3    0.16069217E-01    0.57429766E-01   -0.62156165E-01
    0    1    1    1    1   -0.45756869E-01   -0.28153993E-01    0.37651814E-01
    0    1    1    2    2   -0.64476316E-01   -0.15130840E+00   -0.32874012E-01
    0    1    1    3    3   -0.18751706E+00    0.35033401E+00   -0.28329196E-01
    0    1    1    4    3    0.10777084E+00    0.68624912E-01   -0.13210043E+00
    0    1    1    5    3   -0.85463730E-02   -0.74476926E-01    0.12237143E+00
    1    0    0    1    1   -0.10569229E+00   -0.17303655E-01    0.41932745E-01
    1    0    0    2    2   -0.83902868E-01   -0.11409976E+00   -0.42174905E-01
    1    0    0    3    3    0.93554635E-01    0.16336919E+00    0.37703070E-01
    1    0    0    4    3    0.68857927E-01    0.48680883E-01   -0.12212663E-01
    1    0    0    5    3    0.29877626E-01   -0.51751363E-02   -0.27126209E-01
    1    0    1    1    1   -0.19411869E-01   -0.86518815E-01    0.36152119E-01
    1    0    1    2    2    0.56616050E-01   -0.98663822E-01   -0.37129772E-01
    1    0    1    3    3    0.19212733E-01    0.18127667E+00    0.40257054E-01
    1    0    1    4    3    0.38877924E-01    0.20931235E-01   -0.31190577E-01
    1    0    1    5    3    0.63626301E-01   -0.15446700E-01    0.63986423E-01
    1    1    0    1    1   -0.96286415E-01   -0.61646684E-01   -0.42926905E-01
    1    1    0    2    2   -0.10073767E+00   -0.92534845E-01   -0.34619815E-01
    1    1    0    3    3   -0.15389272E+00    0.10763196E-01    0.36048836E-01
    1    1    0    4    3    0.23118797E-01    0.36545121E-01    0.14400684E+00
    1    1    0    5    3    0.14478364E-01   -0.13361466E-01    0.12993763E+00
    1    1    1    1    1    0.11123046E+00   -0.72810680E-01    0.24581593E-01
    1    1    1    2    2   -0.21617245E-01   -0.12179407E+00   -0.41449058E-01
    1    1    1    3    3    0.64185586E-01    0.11366477E+00    0.95571931E-02
    1    1    1    4    3    0.23767767E-01    0.52707238E-01   -0.16404728E-01
    1    1    1    5    3    0.28118127E-01   -0.50884637E-01   -0.14836750E+00
