    2    2    2
    5    3
Sr        Ti        O         
   -0.30000000E-01   -0.30000000E-01    0.78217819E-02   -0.18188660E-02   -0.42793483E-03    0.00000000E+00
    0    0    0    1    1    0.52948540E-01   -0.55215538E-01   -0.75119881E-01
    0    0    0    2    2   -0.34356119E-01   -0.11236661E-01    0.23098333E-01
    0    0    0    3    3   -0.15421194E-01    0.15386767E+00    0.48650264E-01
    0    0    0    4    3   -0.90385767E-01    0.19356286E-01   -0.54538385E-01
    0    0    0    5    3   -0.31030699E-01    0.50214644E-01    0.96078090E-01
    0    0    1    1    1    0.14214995E-01    0.15968024E-01    0.51030358E-02
    0    0    1    2    2   -0.20794633E-01   -0.57218513E-01    0.37162342E-01
    0    0    1    3    3    0.69065609E-01   -0.19038023E-02    0.21879582E-01
    0    0    1    4    3    0.52290264E-01   -0.30700859E-01    0.99877342E-01
    0    0    1    5    3   -0.45457274E-01   -0.39671078E-01   -0.12193546E+00
    0    1    0    1    1    0.34504431E-01    0.53417175E-01    0.43261117E-01
    0    1    0    2    2    0.51460359E-01    0.25553635E-01    0.14424901E-01
    0    1    0    3    3    0.71142756E-02    0.52300937E-01    0.34509585E-01
    0    1    0    4    3   -0.36806421E-01    0.32817966E-01    0.53034400E-01
    0    1    0    5    3   -0.57180440E-03   -0.12329419E+00   -0.64834194E-01
    0    1    1    1    1   -0.27925169E-01    0.16786159E-02    0.15691624E-01
    0    1    1    2    2    0.40179386E-01   -0.85746722E-01    0.33085900E-01
    0    1    1    3    3    0.29546191E-01    0.10872887E+00    0.25341797E-01
    0    1    1    4    3   -0.64626981E-01   -0.32360013E-01   -0.23940056E-01
    0    1    1    5    3    0.74323893E-02   -0.21895668E-01   -0.51184011E-02
    1    0    0    1    1    0.47476111E-01   -0.25576280E-01   -0.19483813E-01
    1    0    0    2    2   -0.15615988E-01    0.12389229E-01   -0.83322905E-01
    1    0    0    3    3    0.16764485E-01   -0.44060060E-01   -0.46630498E-01
    1    0    0    4    3   -0.78911810E-02    0.26470359E-01    0.46552279E-01
    1    0    0    5    3   -0.40650884E-01   -0.15717256E+00   -0.60602279E-01
    1    0    1    1    1   -0.54345945E-03    0.32918643E-01    0.71033812E-01
    1    0    1    2    2   -0.34795679E-01    0.53771927E-01   -0.65959930E-01
    1    0    1    3    3   -0.11120646E-01    0.24597115E-01    0.19488813E-01
    1    0    1    4    3    0.37269525E-02    0.19355479E-02    0.34258408E-02
    1    0    1    5    3   -0.37349856E-01    0.63217768E-01   -0.30662440E-01
    1    1    0    1    1    0.40798420E-01   -0.24784840E-01    0.28921034E-01
    1    1    0    2    2    0.45170726E-01    0.74690460E-01    0.28564030E-01
    1    1    0    3    3    0.14011522E-01    0.21605469E-01    0.14063731E-01
    1    1    0    4    3   -0.12365328E+00    0.65034777E-02   -0.78702461E-01
    1    1    0    5    3    0.20976883E-01    0.72139754E-01    0.16111715E-01
    1    1    1    1    1   -0.38870829E-01   -0.33334218E-01   -0.96014591E-01
    1    1    1    2    2    0.44890352E-01   -0.32310617E-01   -0.22457020E-02
    1    1    1    3    3    0.53243186E-01   -0.63935316E-01    0.13612304E-02
    1    1    1    4    3    0.20412111E-01    0.79109835E-02    0.78641201E-01
    1    1    1    5    3    0.11640680E-01   -0.71637621E-01   -0.30251006E-01
