    2    2    2
    5    3
Sr        Ti        O         
   -0.30000000E-01   -0.30000000E-01    0.13532697E-01   -0.15891110E-02   -0.32283118E-02    0.00000000E+00
    0    0    0    1    1    0.54042487E-01   -0.84838508E-02    0.16667735E-01
    0    0    0    2    2   -0.40955056E-01    0.57392567E-01    0.68453086E-01
    0    0    0    3    3   -0.59137841E-01    0.64604210E-01    0.10010264E-01
    0    0    0    4    3   -0.22629516E+00   -0.47122403E-03   -0.83772602E-01
    0    0    0    5    3   -0.36838293E-01    0.11372500E+00    0.13404386E+00
    0    0    1    1    1   -0.17440205E-01    0.51316093E-02   -0.51318567E-01
    0    0    1    2    2   -0.93791548E-02   -0.46702708E-01    0.23950745E-01
    0    0    1    3    3    0.64897491E-01   -0.48273085E-01    0.15878048E-01
    0    0    1    4    3    0.17274489E+00   -0.54545739E-01   -0.84741565E-02
    0    0    1    5    3   -0.37806892E-02   -0.14916838E+00   -0.79058994E-01
    0    1    0    1    1   -0.54511397E-01    0.10150589E+00    0.96508679E-02
    0    1    0    2    2   -0.30453433E-01    0.51173565E-01    0.65999224E-01
    0    1    0    3    3    0.54757171E-01   -0.62791313E-01    0.52823448E-02
    0    1    0    4    3    0.15012053E+00   -0.23306012E-02    0.77798074E-01
    0    1    0    5    3    0.58578894E-01   -0.13936114E+00   -0.51081023E-01
    0    1    1    1    1   -0.64113134E-01   -0.17166338E-01    0.34333944E-01
    0    1    1    2    2   -0.27322677E-01   -0.50954730E-01    0.13456514E-01
    0    1    1    3    3   -0.25410298E-01    0.17742917E-01   -0.13560381E-02
    0    1    1    4    3    0.49793728E-01   -0.44461311E-01   -0.11067245E+00
    0    1    1    5    3   -0.52223114E-02    0.93112101E-01   -0.46831043E-01
    1    0    0    1    1   -0.45901687E-02    0.12520987E-01    0.15224907E-02
    1    0    0    2    2   -0.58659961E-01    0.42613382E-01   -0.95624615E-01
    1    0    0    3    3    0.25556628E-01    0.16220477E-01   -0.23306361E-01
    1    0    0    4    3    0.89733196E-01    0.17875172E-01    0.17292432E-01
    1    0    0    5    3   -0.51148189E-01   -0.24638872E+00    0.31185631E-01
    1    0    1    1    1    0.25419968E-01    0.24260497E-01    0.29326814E-01
    1    0    1    2    2   -0.80289074E-02    0.40186504E-02   -0.97649234E-01
    1    0    1    3    3   -0.64615283E-03    0.69813237E-01    0.42628843E-01
    1    0    1    4    3   -0.68014404E-01   -0.13345322E-01   -0.11717346E-02
    1    0    1    5    3    0.34127760E-01   -0.19652302E-02    0.93729051E-01
    1    1    0    1    1   -0.13241004E-01    0.46702540E-01   -0.48422904E-01
    1    1    0    2    2    0.24017088E-03    0.87616693E-02    0.25164571E-01
    1    1    0    3    3    0.26626238E-01    0.20730394E-01   -0.12993609E-01
    1    1    0    4    3   -0.24184842E+00    0.32929396E-01    0.11488327E-01
    1    1    0    5    3    0.31806175E-01    0.92649987E-01    0.55806123E-01
    1    1    1    1    1   -0.28308493E-01    0.43260527E-01   -0.25468983E-01
    1    1    1    2    2   -0.20069396E-01    0.36788479E-01   -0.86958775E-04
    1    1    1    3    3    0.50985136E-01   -0.31546245E-01    0.21443484E-02
    1    1    1    4    3    0.20168387E+00    0.18280084E-01    0.57633019E-01
    1    1    1    5    3    0.43004139E-02   -0.73857409E-01   -0.10615708E+00
