    2    2    2
    5    3
Sr        Ti        O         
   -0.30000000E-01   -0.30000000E-01    0.19683633E-01    0.10117804E-02    0.27014404E-02    0.00000000E+00
    0    0    0    1    1   -0.23786682E-01    0.16460944E-01    0.22499774E-01
    0    0    0    2    2   -0.12614562E-02   -0.21781061E-01   -0.25231221E-02
    0    0    0    3    3    0.57039086E-01    0.61637620E-01    0.19908402E-01
    0    0    0    4    3   -0.60075301E+00    0.12244780E-01   -0.47481780E-01
    0    0    0    5    3   -0.18239958E-01    0.52908131E+00   -0.16729480E-01
    0    0    1    1    1    0.44921288E-01    0.44345681E-01    0.39682615E-01
    0    0    1    2    2    0.15299133E-01    0.57186734E-01    0.30272969E-01
    0    0    1    3    3    0.23252837E-01   -0.48909451E-01    0.13661388E-01
    0    0    1    4    3    0.48004077E+00    0.49561245E-01    0.96812520E-01
    0    0    1    5    3    0.79888085E-03   -0.56360242E+00    0.47546847E-01
    0    1    0    1    1    0.25243286E-01    0.52721326E-01   -0.24313393E-01
    0    1    0    2    2    0.45623794E-02    0.75995674E-02   -0.53129120E-01
    0    1    0    3    3   -0.17642515E-01    0.37763318E-01   -0.57935671E-01
    0    1    0    4    3    0.57246574E+00    0.77716287E-02   -0.14464057E-01
    0    1    0    5    3   -0.12187039E-02   -0.55718322E+00   -0.99740478E-01
    0    1    1    1    1    0.38794517E-01   -0.23399567E-02    0.49650799E-01
    0    1    1    2    2   -0.88440533E-02    0.73961568E-01   -0.50833997E-01
    0    1    1    3    3   -0.14133613E+00    0.42879418E-01   -0.28623974E-01
    0    1    1    4    3   -0.46503060E+00    0.18523670E-01   -0.46602582E-01
    0    1    1    5    3    0.28439203E-03    0.42208303E+00    0.12103795E+00
    1    0    0    1    1   -0.44594197E-01   -0.15378954E-01    0.19907496E-01
    1    0    0    2    2   -0.90456836E-02   -0.26805117E-01    0.25997811E-01
    1    0    0    3    3   -0.37002128E-01   -0.99219899E-01   -0.61306353E-01
    1    0    0    4    3    0.58598157E+00   -0.27223619E-01    0.11519087E+00
    1    0    0    5    3    0.13947837E-01   -0.62154126E+00   -0.17922332E-01
    1    0    1    1    1    0.20764630E-01    0.26015518E-01   -0.38305902E-01
    1    0    1    2    2    0.44582246E-01   -0.70077859E-02    0.81904139E-01
    1    0    1    3    3    0.18487962E-01    0.77052356E-01    0.51875840E-01
    1    0    1    4    3   -0.40374643E+00   -0.35398656E-01   -0.54446791E-01
    1    0    1    5    3    0.15930232E-01    0.43195837E+00   -0.53472831E-01
    1    1    0    1    1   -0.81049036E-01   -0.41159220E-01   -0.59112965E-02
    1    1    0    2    2   -0.15408947E-04   -0.43324008E-02    0.13096532E-01
    1    1    0    3    3   -0.58111299E-01    0.44403179E-01    0.52145253E-01
    1    1    0    4    3   -0.60909431E+00   -0.22455336E-01   -0.90276066E-01
    1    1    0    5    3   -0.52820586E-01    0.59244875E+00   -0.43764686E-01
    1    1    1    1    1    0.44693914E-01    0.27423189E-01   -0.10172115E-01
    1    1    1    2    2   -0.14839355E-01   -0.26794162E-01    0.20500880E-01
    1    1    1    3    3    0.44513397E-01   -0.86407169E-01   -0.18534942E-01
    1    1    1    4    3    0.52131563E+00    0.71637454E-03    0.83162788E-01
    1    1    1    5    3    0.15511808E-01   -0.42629990E+00   -0.68363903E-01
