    2    2    2
    5    3
Sr        Ti        O         
   -0.30000000E-01   -0.30000000E-01    0.18936651E-01    0.36235080E-02    0.30573374E-02    0.00000000E+00
    0    0    0    1    1   -0.66999222E-02   -0.29106146E-01   -0.52947927E-01
    0    0    0    2    2   -0.49096878E-01    0.61533361E-01   -0.75351428E-01
    0    0    0    3    3    0.21939762E-01    0.74670130E-01    0.11591317E-01
    0    0    0    4    3   -0.51758277E+00    0.22644726E-01   -0.12366945E+00
    0    0    0    5    3   -0.55473527E-01    0.54291475E+00   -0.34085292E-01
    0    0    1    1    1    0.54466225E-01   -0.17706429E-01   -0.45810781E-01
    0    0    1    2    2   -0.26156365E-01    0.37699582E-01   -0.50965979E-01
    0    0    1    3    3   -0.36917865E-01   -0.34463508E-01    0.13524857E-02
    0    0    1    4    3    0.29188386E+00    0.20357495E-01    0.98811653E-01
    0    0    1    5    3   -0.24755860E-03   -0.23890961E+00    0.11302922E+00
    0    1    0    1    1    0.66523634E-02   -0.14909295E-01    0.35272299E-02
    0    1    0    2    2    0.23344057E-01    0.58645430E-01   -0.33083286E-01
    0    1    0    3    3   -0.73711781E-01   -0.30540040E-01   -0.46189849E-01
    0    1    0    4    3    0.43016139E+00    0.18505665E-01    0.89150453E-01
    0    1    0    5    3    0.10413637E-01   -0.51076099E+00   -0.52181973E-01
    0    1    1    1    1   -0.20019493E-01   -0.45326525E-01   -0.64794634E-01
    0    1    1    2    2    0.46833478E-02    0.12169349E-01    0.39328512E-01
    0    1    1    3    3    0.12634246E-01    0.12132850E+00   -0.50496303E-01
    0    1    1    4    3   -0.28219720E+00    0.20456820E-01   -0.25459928E-01
    0    1    1    5    3    0.15026512E-01    0.25677049E+00    0.24089530E-01
    1    0    0    1    1    0.26954839E-01    0.12753672E-01   -0.41268493E-01
    1    0    0    2    2   -0.46035818E-01   -0.26034169E-01   -0.26546871E-01
    1    0    0    3    3   -0.60171681E-01   -0.75952991E-01   -0.31834191E-01
    1    0    0    4    3    0.47242373E+00   -0.42098771E-01    0.10230462E+00
    1    0    0    5    3   -0.63458573E-03   -0.55304202E+00    0.98086988E-01
    1    0    1    1    1   -0.27794810E-01   -0.19583085E-01    0.39666246E-01
    1    0    1    2    2   -0.26790875E-01    0.14013997E-01   -0.91106673E-01
    1    0    1    3    3    0.10226661E+00    0.11036333E-01    0.33369525E-01
    1    0    1    4    3   -0.36283353E+00   -0.10270848E-01    0.67035407E-01
    1    0    1    5    3    0.17805249E-01    0.30128793E+00    0.20186980E-01
    1    1    0    1    1    0.83314995E-01    0.73291695E-01    0.25676969E-01
    1    1    0    2    2    0.70972014E-01   -0.20867707E-01   -0.35392075E-02
    1    1    0    3    3    0.61990443E-01    0.45645509E-01    0.18315623E-01
    1    1    0    4    3   -0.52833756E+00   -0.44204833E-02   -0.90606989E-01
    1    1    0    5    3    0.27917054E-01    0.33491144E+00   -0.57179555E-02
    1    1    1    1    1   -0.99972898E-02    0.49275208E-01    0.22716602E-01
    1    1    1    2    2    0.29593131E-01   -0.56872884E-02   -0.23467490E-01
    1    1    1    3    3    0.29969657E-01   -0.63891289E-01    0.91993094E-02
    1    1    1    4    3    0.33324352E+00   -0.47619743E-02    0.14745608E+00
    1    1    1    5    3    0.30428696E-02   -0.34157893E+00    0.42299507E-02
