    2    2    2
    5    3
Sr        Ti        O         
   -0.30000000E-01   -0.30000000E-01    0.21242736E-02   -0.41042392E-03   -0.92108543E-05    0.00000000E+00
    0    0    0    1    1    0.45882724E-01    0.26366189E-01    0.18733895E-01
    0    0    0    2    2   -0.33637274E-01    0.92634568E-02   -0.75417963E-02
    0    0    0    3    3    0.18841979E-01   -0.10091398E+00    0.19425621E-01
    0    0    0    4    3    0.30501510E-02    0.10089448E-01    0.53035838E-01
    0    0    0    5    3   -0.49656488E-01   -0.49000218E-02   -0.83093347E-02
    0    0    1    1    1    0.50831210E-01   -0.24487397E-01    0.46408221E-01
    0    0    1    2    2    0.23259328E-01   -0.28903358E-01    0.50867190E-01
    0    0    1    3    3    0.62922878E-01    0.20319309E-01    0.26975429E-01
    0    0    1    4    3    0.23789619E-01   -0.44183814E-01    0.69179905E-01
    0    0    1    5    3    0.81892403E-02   -0.37302564E-01    0.18864352E-01
    0    1    0    1    1   -0.98859531E-02    0.37753940E-01   -0.61590099E-01
    0    1    0    2    2    0.70731626E-02   -0.75810332E-02   -0.17848288E-01
    0    1    0    3    3   -0.81090954E-01   -0.28710469E-01   -0.97797182E-02
    0    1    0    4    3    0.85055278E-01   -0.36141864E-01   -0.55430479E-01
    0    1    0    5    3    0.66008355E-02   -0.39030255E-01   -0.14503154E-01
    0    1    1    1    1    0.32582434E-01    0.18599078E-01   -0.93454617E-02
    0    1    1    2    2    0.13784731E-01   -0.48069167E-01   -0.33594731E-01
    0    1    1    3    3   -0.52153263E-01   -0.62570525E-01    0.16178065E-01
    0    1    1    4    3    0.13176450E-01   -0.30707125E-01   -0.28750090E-01
    0    1    1    5    3   -0.18023310E-02    0.52666028E-01    0.37853015E-01
    1    0    0    1    1   -0.13526932E-01    0.54663380E-01    0.14788728E-01
    1    0    0    2    2   -0.43162331E-01    0.48928048E-01   -0.49040871E-01
    1    0    0    3    3   -0.31421806E-01   -0.10286156E-02    0.30236694E-01
    1    0    0    4    3    0.74689060E-01    0.41563744E-01   -0.38221768E-01
    1    0    0    5    3    0.16264541E-03   -0.75971116E-01   -0.41402712E-01
    1    0    1    1    1   -0.37458187E-01   -0.18371906E-01    0.13465505E-01
    1    0    1    2    2    0.12815027E-01   -0.40762805E-02   -0.47287832E-01
    1    0    1    3    3   -0.11032498E+00    0.67913697E-01    0.14886231E-01
    1    0    1    4    3    0.21350552E-01    0.17275033E-01   -0.32374026E-01
    1    0    1    5    3    0.17578085E-02    0.25115233E-01    0.72685184E-01
    1    1    0    1    1   -0.29564594E-01    0.49589061E-01    0.41832096E-01
    1    1    0    2    2   -0.66034943E-02    0.34845396E-01    0.14177551E-01
    1    1    0    3    3    0.75737098E-02   -0.14018511E-01   -0.21287952E-01
    1    1    0    4    3    0.40666199E-01    0.28414254E-01   -0.29910380E-01
    1    1    0    5    3   -0.11785991E-01    0.11396404E-01    0.26924858E-02
    1    1    1    1    1    0.27698206E-02   -0.53101077E-01   -0.12965262E-01
    1    1    1    2    2    0.36590848E-01    0.27882833E-01    0.19099884E-01
    1    1    1    3    3   -0.13228983E-01    0.83113811E-01   -0.10929078E-02
    1    1    1    4    3   -0.35700384E-01   -0.12127829E-01   -0.15918066E-01
    1    1    1    5    3   -0.32411746E-01    0.64385678E-02   -0.45190960E-01
