    2    2    2
    5    3
Sr        Ti        O         
   -0.30000000E-01   -0.30000000E-01    0.48061074E-02   -0.43957238E-03   -0.14175885E-02    0.00000000E+00
    0    0    0    1    1   -0.39914622E-01    0.10098671E+00   -0.74504744E-02
    0    0    0    2    2   -0.40848126E-01    0.97348781E-02    0.63595078E-01
    0    0    0    3    3   -0.21131349E-01    0.45170456E-01   -0.27500466E-01
    0    0    0    4    3   -0.54349653E-01   -0.28839260E-01   -0.54151241E-01
    0    0    0    5    3    0.27728405E-01    0.42786564E-01   -0.30444663E-01
    0    0    1    1    1    0.47865881E-01    0.91275472E-01   -0.10422633E-02
    0    0    1    2    2   -0.53663671E-02   -0.39798161E-01    0.41701112E-01
    0    0    1    3    3   -0.48142266E-01   -0.10990352E+00   -0.31892443E-01
    0    0    1    4    3   -0.73940515E-01   -0.54350433E-01    0.51508956E-01
    0    0    1    5    3    0.17513000E-01   -0.77900161E-01    0.19598604E-02
    0    1    0    1    1    0.19908302E-01    0.82285030E-01    0.10875576E+00
    0    1    0    2    2   -0.55005250E-02    0.22234497E-01    0.23286157E-01
    0    1    0    3    3    0.45704559E-01   -0.40569819E-01    0.42636152E-02
    0    1    0    4    3    0.11871449E+00   -0.17092972E-01   -0.21227842E-01
    0    1    0    5    3   -0.10868009E-01   -0.53629934E-01    0.11284354E-01
    0    1    1    1    1   -0.32871009E-02    0.35713095E-01    0.43461068E-02
    0    1    1    2    2    0.26188300E-01   -0.64368644E-01    0.37302091E-01
    0    1    1    3    3   -0.91525329E-01    0.16235352E-01   -0.33793482E-01
    0    1    1    4    3   -0.12576723E-01   -0.57940941E-01   -0.63025520E-01
    0    1    1    5    3    0.57575985E-02    0.71730855E-02    0.88579821E-01
    1    0    0    1    1   -0.47670198E-02   -0.78798014E-01    0.10167720E-01
    1    0    0    2    2   -0.39393240E-01   -0.29006159E-01   -0.67435065E-01
    1    0    0    3    3    0.48458694E-01   -0.12698454E-01    0.33953659E-02
    1    0    0    4    3    0.55568728E-01    0.14311972E-01   -0.12905796E-02
    1    0    0    5    3    0.40637934E-02   -0.53227292E-01   -0.65460105E-01
    1    0    1    1    1    0.41374202E-01   -0.28748025E-01    0.30774064E-01
    1    0    1    2    2   -0.21053923E-01    0.15272072E-01   -0.60612534E-01
    1    0    1    3    3    0.10583451E-01    0.69705416E-01    0.36608612E-02
    1    0    1    4    3   -0.51924031E-01    0.10265936E-01   -0.14261351E+00
    1    0    1    5    3   -0.16979857E-01    0.31771518E-01    0.28121308E-03
    1    1    0    1    1   -0.15124369E-01    0.61423085E-02    0.19566982E-01
    1    1    0    2    2    0.23958087E-02    0.88641924E-02   -0.20787366E-01
    1    1    0    3    3    0.56153838E-01    0.50712864E-01   -0.15820902E-01
    1    1    0    4    3   -0.72786923E-01    0.18803735E-01    0.27300511E-01
    1    1    0    5    3   -0.20453026E-01    0.36015103E-01    0.96091595E-01
    1    1    1    1    1    0.30730627E-01   -0.64181389E-02    0.50490566E-01
    1    1    1    2    2    0.38780636E-01    0.17159578E-01   -0.48028102E-01
    1    1    1    3    3    0.54470296E-03    0.30589108E-01   -0.52849748E-01
    1    1    1    4    3    0.30224152E-01    0.25720506E-01    0.46909046E-01
    1    1    1    5    3    0.21673802E-01   -0.35639523E-01    0.20205467E-01
