    2    2    2
    5    3
Sr        Ti        O         
   -0.30000000E-01   -0.30000000E-01    0.17926061E-01    0.35281327E-02   -0.35834736E-02    0.00000000E+00
    0    0    0    1    1   -0.17910906E-01    0.18509040E-01   -0.23640956E-01
    0    0    0    2    2   -0.39738186E-01    0.36852189E-01    0.11762096E-01
    0    0    0    3    3    0.26581870E-01    0.89152223E-01   -0.53428458E-02
    0    0    0    4    3   -0.24596555E+00   -0.27559450E-01   -0.13941466E+00
    0    0    0    5    3   -0.15763336E-01    0.25657665E+00    0.17282534E-01
    0    0    1    1    1    0.20317130E-01    0.26890129E-01    0.48487454E-01
    0    0    1    2    2    0.18164448E-01    0.37610345E-02    0.46879128E-01
    0    0    1    3    3   -0.96321837E-02   -0.31782738E-02    0.85776610E-02
    0    0    1    4    3    0.21764722E+00    0.32813574E-01   -0.69409860E-01
    0    0    1    5    3    0.46224344E-02   -0.12868745E+00    0.80091178E-01
    0    1    0    1    1   -0.81400910E-02    0.10266447E+00    0.14628975E-01
    0    1    0    2    2    0.29505302E-01   -0.15841424E-01    0.30235995E-01
    0    1    0    3    3    0.16175119E-01   -0.14685720E-01   -0.24310092E-01
    0    1    0    4    3    0.19605831E+00    0.15915749E-01    0.49265670E-01
    0    1    0    5    3   -0.27934422E-01   -0.36713468E+00   -0.57888357E-01
    0    1    1    1    1   -0.48561101E-02    0.73305569E-01    0.26865741E-01
    0    1    1    2    2    0.36523210E-01   -0.11299815E-01    0.46012883E-01
    0    1    1    3    3   -0.27521372E-01    0.25452494E-01   -0.40252840E-01
    0    1    1    4    3   -0.99514932E-01    0.24425837E-02   -0.13812159E+00
    0    1    1    5    3    0.51922830E-01    0.15311581E+00    0.71758706E-01
    1    0    0    1    1    0.34270347E-01    0.41916680E-01   -0.28672689E-01
    1    0    0    2    2   -0.13752398E-01    0.99419676E-02    0.32106494E-01
    1    0    0    3    3    0.38516548E-01   -0.27146702E-01    0.86478376E-01
    1    0    0    4    3    0.23455375E+00   -0.26550416E-01    0.56482091E-01
    1    0    0    5    3   -0.35977946E-01   -0.35028834E+00    0.76609731E-01
    1    0    1    1    1   -0.26259397E-01    0.61223649E-01   -0.88238795E-01
    1    0    1    2    2   -0.93842202E-02    0.51171720E-02   -0.20625563E-01
    1    0    1    3    3   -0.87492417E-02   -0.54915070E-01    0.32523794E-01
    1    0    1    4    3   -0.16790001E+00    0.21554184E-01   -0.57927752E-01
    1    0    1    5    3    0.47796778E-01    0.15820202E+00    0.10293930E+00
    1    1    0    1    1    0.52099397E-02   -0.44658928E-01   -0.78588332E-01
    1    1    0    2    2    0.23626968E-01   -0.21234942E-01   -0.89747877E-01
    1    1    0    3    3    0.60599354E-02   -0.11937376E-01    0.29956158E-01
    1    1    0    4    3   -0.34364761E+00   -0.53390564E-01    0.42342499E-01
    1    1    0    5    3    0.19415402E-01    0.11004619E+00    0.17149334E-01
    1    1    1    1    1   -0.51805829E-01    0.58879391E-01   -0.40378154E-01
    1    1    1    2    2    0.15037538E-01    0.30922498E-01   -0.69609897E-01
    1    1    1    3    3    0.45311713E-01   -0.43171707E-01    0.63693484E-01
    1    1    1    4    3    0.79044020E-01    0.62151683E-02    0.38705322E-01
    1    1    1    5    3   -0.11907072E-01   -0.13978958E+00   -0.58664344E-01
