    2    2    2
    5    3
Sr        Ti        O         
    0.30000000E-01    0.30000000E-01   -0.10344632E-01    0.22455841E-02   -0.36016795E-02    0.00000000E+00
    0    0    0    1    1   -0.91598246E-01    0.53680024E-01    0.55564757E-01
    0    0    0    2    2   -0.62677625E-01    0.10224884E+00    0.41505770E-01
    0    0    0    3    3    0.34030262E+00    0.77602070E-01    0.28820754E-01
    0    0    0    4    3   -0.11539332E+00   -0.52765961E-01   -0.16575208E+00
    0    0    0    5    3    0.80824572E-01   -0.18616204E-01   -0.15371052E+00
    0    0    1    1    1   -0.29870285E-01    0.54296202E-01   -0.59458749E-01
    0    0    1    2    2   -0.13919349E+00    0.15271178E+00   -0.11873341E-01
    0    0    1    3    3   -0.13589902E+00   -0.28483984E+00    0.28319769E-01
    0    0    1    4    3    0.32415202E-01   -0.79015776E-01    0.18039991E+00
    0    0    1    5    3    0.24468486E-01   -0.25017789E-01    0.80588506E-01
    0    1    0    1    1    0.35027882E-01    0.36736524E-01    0.46877142E-01
    0    1    0    2    2   -0.73834045E-01    0.14071952E+00    0.55626544E-01
    0    1    0    3    3   -0.54814466E-01   -0.30676168E+00   -0.48499822E-03
    0    1    0    4    3    0.23807130E-01   -0.10357830E+00    0.17940932E+00
    0    1    0    5    3    0.27066423E-01   -0.95460557E-01    0.10841966E+00
    0    1    1    1    1   -0.13003084E+00    0.73595753E-01    0.46788714E-01
    0    1    1    2    2   -0.89763689E-01    0.21006946E+00    0.46505124E-01
    0    1    1    3    3    0.34711987E+00    0.11294061E+00    0.43779055E-01
    0    1    1    4    3    0.63490530E-01   -0.72450971E-01   -0.17288193E+00
    0    1    1    5    3    0.17413185E-01    0.47750691E-01   -0.18489623E+00
    1    0    0    1    1   -0.40691465E-01    0.63885630E-01   -0.75971596E-01
    1    0    0    2    2   -0.12449428E+00    0.11542920E+00   -0.46367793E-02
    1    0    0    3    3   -0.28779647E-01   -0.33426816E+00   -0.63888448E-01
    1    0    0    4    3   -0.85780950E-01   -0.42579997E-01    0.18533818E+00
    1    0    0    5    3    0.51666508E-01   -0.16063813E+00    0.19974337E+00
    1    0    1    1    1   -0.12945963E-01    0.36049516E-01   -0.23043708E-01
    1    0    1    2    2   -0.13101381E+00    0.17476474E+00   -0.36192732E-01
    1    0    1    3    3    0.24089353E+00    0.26380092E+00   -0.43447309E-01
    1    0    1    4    3    0.72545106E-01   -0.61515564E-01   -0.24958853E+00
    1    0    1    5    3    0.37624215E-01   -0.33579606E-01   -0.18873256E+00
    1    1    0    1    1   -0.11341061E+00    0.51121147E-01   -0.14373739E-01
    1    1    0    2    2   -0.13864747E+00    0.10658386E+00   -0.32431276E-01
    1    1    0    3    3    0.26344362E+00    0.13594181E+00    0.12955864E-02
    1    1    0    4    3   -0.69933020E-01   -0.21826889E-01   -0.21965464E+00
    1    1    0    5    3    0.18282103E-01   -0.44712272E-01   -0.12801246E+00
    1    1    1    1    1   -0.36916344E-01    0.71068591E-01    0.31157351E-02
    1    1    1    2    2   -0.45513383E-01    0.15977753E+00    0.25060118E-01
    1    1    1    3    3   -0.10196537E+00   -0.34555592E+00    0.10442453E-01
    1    1    1    4    3    0.11670082E+00   -0.76249952E-01    0.23441163E+00
    1    1    1    5    3    0.60075530E-01   -0.81340836E-01    0.22701952E+00
