    2    2    2
    5    3
Sr        Ti        O         
    0.30000000E-01    0.30000000E-01   -0.48383418E-02    0.11917093E-02   -0.24347307E-02    0.00000000E+00
    0    0    0    1    1   -0.89025111E-01    0.88103879E-01    0.61280668E-01
    0    0    0    2    2   -0.11595443E+00    0.11130193E+00   -0.50712550E-02
    0    0    0    3    3    0.22551963E+00    0.25137646E-01   -0.10419346E-01
    0    0    0    4    3    0.15623980E-01   -0.75741057E-01   -0.14382989E+00
    0    0    0    5    3    0.56374869E-01    0.13283566E-01   -0.14653215E+00
    0    0    1    1    1   -0.31930102E-01    0.81299693E-02    0.15177674E-01
    0    0    1    2    2   -0.17041792E+00    0.77789144E-01   -0.92541267E-03
    0    0    1    3    3   -0.12248071E+00   -0.23598303E+00    0.31707341E-01
    0    0    1    4    3    0.72849661E-01   -0.85575549E-01    0.73444512E-01
    0    0    1    5    3    0.43399404E-01   -0.73773973E-01    0.12940379E+00
    0    1    0    1    1   -0.26189743E-01    0.63927036E-01    0.60499940E-01
    0    1    0    2    2   -0.10154453E+00    0.10759350E+00   -0.16338916E-01
    0    1    0    3    3   -0.70885909E-01   -0.27539650E+00   -0.35299725E-01
    0    1    0    4    3    0.37925952E-01   -0.64889412E-01    0.10839943E+00
    0    1    0    5    3    0.54075748E-01   -0.46743153E-02    0.14915614E+00
    0    1    1    1    1   -0.24755575E-01    0.11564982E+00    0.13777019E-01
    0    1    1    2    2   -0.13885815E+00    0.72949950E-01   -0.16659295E-01
    0    1    1    3    3    0.25758154E+00   -0.38001336E-02   -0.28479541E-01
    0    1    1    4    3    0.21854774E-01   -0.65208480E-01   -0.15656849E+00
    0    1    1    5    3    0.61078628E-01    0.22759517E-01   -0.25984671E+00
    1    0    0    1    1   -0.12475825E+00    0.63900690E-01   -0.13737514E+00
    1    0    0    2    2   -0.95596879E-01    0.14841948E+00    0.60453098E-01
    1    0    0    3    3   -0.77431661E-01   -0.26320992E+00   -0.36152100E-01
    1    0    0    4    3    0.67689291E-01   -0.40491724E-01    0.28060819E+00
    1    0    0    5    3    0.36428546E-01   -0.71618620E-01    0.17511801E+00
    1    0    1    1    1    0.28843029E-02    0.24168107E-01    0.32079173E-01
    1    0    1    2    2   -0.12937678E+00    0.20383523E+00    0.27412111E-01
    1    0    1    3    3    0.23604817E+00    0.27842572E+00   -0.67392723E-03
    1    0    1    4    3    0.25337755E-01   -0.46743834E-01   -0.18629120E+00
    1    0    1    5    3    0.56294420E-01   -0.11279051E+00   -0.18041185E+00
    1    1    0    1    1   -0.11323371E+00   -0.56086981E-01    0.75762285E-01
    1    1    0    2    2   -0.11797356E+00    0.11088445E+00   -0.27892495E-01
    1    1    0    3    3    0.25662012E+00    0.17636165E+00    0.42660497E-01
    1    1    0    4    3    0.77099332E-01   -0.60996788E-01   -0.20866660E+00
    1    1    0    5    3    0.87482582E-01   -0.15905996E-01   -0.19687515E+00
    1    1    1    1    1   -0.15875011E-02    0.76485808E-01   -0.24521688E-01
    1    1    1    2    2   -0.10507610E+00    0.15666415E+00   -0.32183253E-01
    1    1    1    3    3   -0.12027978E+00   -0.39138886E+00    0.39108008E-01
    1    1    1    4    3    0.44297111E-01   -0.10132612E-01    0.29866422E+00
    1    1    1    5    3    0.40890569E-01    0.86370561E-02    0.17630202E+00
