    2    2    2
    5    3
Sr        Ti        O         
    0.30000000E-01    0.30000000E-01   -0.54860632E-02    0.98343728E-03   -0.15814373E-02    0.00000000E+00
    0    0    0    1    1   -0.37742594E-01    0.15231621E-01    0.33174721E-01
    0    0    0    2    2   -0.59587087E-01    0.12937797E+00   -0.27183255E-01
    0    0    0    3    3    0.24490575E+00   -0.68203528E-01   -0.73026604E-03
    0    0    0    4    3    0.23787964E-01   -0.59318662E-01   -0.13594127E+00
    0    0    0    5    3    0.86265428E-01   -0.90660797E-01   -0.11423019E+00
    0    0    1    1    1   -0.29390781E-01    0.53251191E-01   -0.18953025E-01
    0    0    1    2    2   -0.15359898E+00    0.65242096E-01   -0.55857229E-01
    0    0    1    3    3   -0.92145674E-01   -0.21685519E+00    0.32570923E-02
    0    0    1    4    3   -0.80821997E-01   -0.68565324E-01    0.52206010E-01
    0    0    1    5    3    0.28112429E-01    0.56096731E-02    0.10805343E+00
    0    1    0    1    1   -0.69941361E-01    0.77705773E-01   -0.56673329E-01
    0    1    0    2    2   -0.95090876E-01    0.18073415E+00   -0.62401918E-01
    0    1    0    3    3   -0.12551939E+00   -0.15646319E+00   -0.65555198E-02
    0    1    0    4    3   -0.12876065E-01   -0.52856386E-01    0.46325735E-01
    0    1    0    5    3    0.81426575E-01   -0.52833093E-01    0.20908344E+00
    0    1    1    1    1   -0.62778903E-01    0.44309941E-01   -0.18940180E-01
    0    1    1    2    2   -0.90149587E-01    0.11552191E+00   -0.18412272E-01
    0    1    1    3    3    0.24563999E+00   -0.36485438E-02   -0.83891102E-02
    0    1    1    4    3   -0.26791954E-01   -0.46213501E-01   -0.53717533E-01
    0    1    1    5    3    0.32225843E-01   -0.26598031E-01   -0.11529300E+00
    1    0    0    1    1   -0.26619140E-01    0.13866116E+00   -0.98829193E-01
    1    0    0    2    2   -0.33382808E-01    0.57332515E-01    0.28743407E-01
    1    0    0    3    3   -0.62957085E-01   -0.23627780E+00    0.50787974E-01
    1    0    0    4    3    0.54733252E-01    0.54897658E-02    0.23833611E+00
    1    0    0    5    3    0.64943224E-01   -0.57798602E-01    0.27292318E+00
    1    0    1    1    1   -0.61787587E-01    0.41050327E-01   -0.82094929E-02
    1    0    1    2    2   -0.13025384E+00    0.13736023E+00   -0.54996389E-02
    1    0    1    3    3    0.33132194E+00    0.58622009E-01    0.23837125E-01
    1    0    1    4    3    0.38811589E-01   -0.29675768E-01   -0.16179070E+00
    1    0    1    5    3    0.78874028E-02   -0.75113585E-01   -0.15760433E+00
    1    1    0    1    1   -0.40038786E-01    0.11598207E-01   -0.34600071E-01
    1    1    0    2    2   -0.97419509E-01    0.85074018E-01   -0.92873780E-03
    1    1    0    3    3    0.24588951E+00    0.14329975E+00   -0.16669161E-01
    1    1    0    4    3    0.10965973E+00   -0.54475749E-01   -0.11889908E+00
    1    1    0    5    3    0.41116156E-01   -0.48503445E-01   -0.21743353E+00
    1    1    1    1    1   -0.62263735E-01    0.11168618E+00   -0.45791252E-01
    1    1    1    2    2   -0.86384669E-01    0.13553665E+00   -0.13015109E-01
    1    1    1    3    3   -0.17220633E+00   -0.26711040E+00    0.52812696E-02
    1    1    1    4    3    0.20408400E-01   -0.44009009E-01    0.25744040E+00
    1    1    1    5    3    0.52613552E-01    0.42485463E-01    0.24309850E+00
