2	2	2
5	3
Sr	Ti	O
3.00000000E-02	3.00000000E-02	0.00000000E+00	0.00000000E+00	0.00000000E+00	0.00000000E+00
0	0	0	1	1	-8.23875882E-02	2.18468526E-02	1.31722957E-03
0	0	0	2	2	-9.76914899E-02	7.68368204E-02	-2.27371099E-02
0	0	0	3	3	2.41539101E-01	5.27485182E-02	-5.50312240E-03
0	0	0	4	3	3.82493284E-02	-3.89825894E-02	-1.10308006E-01
0	0	0	5	3	4.63829496E-02	2.29614951E-03	-1.34707171E-01
0	0	1	1	1	-4.53959287E-02	5.47881424E-02	2.82715648E-03
0	0	1	2	2	-9.85936026E-02	6.68479300E-02	-2.27677596E-02
0	0	1	3	3	-6.14890556E-02	-2.07655443E-01	3.78325627E-03
0	0	1	4	3	-5.53835304E-03	-4.12529362E-02	1.15505252E-01
0	0	1	5	3	4.52811666E-02	-2.56287633E-04	1.30341667E-01
0	1	0	1	1	-2.97290743E-02	3.76915313E-02	-1.69851751E-02
0	1	0	2	2	-9.86411498E-02	8.36549755E-02	-4.84787959E-03
0	1	0	3	3	-8.48169038E-02	-1.94472745E-01	-4.33467242E-03
0	1	0	4	3	3.72166912E-02	-4.72811407E-02	1.21099039E-01
0	1	0	5	3	5.59467959E-02	-1.30046323E-02	1.59078416E-01
0	1	1	1	1	-4.82809902E-02	5.15557052E-02	8.00866545E-03
0	1	1	2	2	-1.02619558E-01	7.94377284E-02	-5.75319367E-04
0	1	1	3	3	2.55411468E-01	4.19774293E-02	-5.47745766E-03
0	1	1	4	3	2.70260005E-02	-3.42359069E-02	-1.06524577E-01
0	1	1	5	3	4.38942990E-02	-2.94130733E-02	-1.57733636E-01
1	0	0	1	1	-4.68612471E-02	4.94031744E-02	-2.23382480E-03
1	0	0	2	2	-9.50191994E-02	1.09948280E-01	1.58703758E-03
1	0	0	3	3	-3.77851382E-02	-2.42193416E-01	-1.04369632E-03
1	0	0	4	3	4.22587729E-02	-4.44925808E-02	1.88479850E-01
1	0	0	5	3	4.82337069E-02	-6.10949333E-03	1.27292878E-01
1	0	1	1	1	-5.51996122E-02	3.53479436E-02	1.02439085E-02
1	0	1	2	2	-1.06734491E-01	1.14592597E-01	8.06126161E-03
1	0	1	3	3	2.14821812E-01	8.95077168E-02	1.39803833E-02
1	0	1	4	3	1.23724530E-02	-5.14096289E-02	-1.33620037E-01
1	0	1	5	3	4.07171566E-02	-3.10745000E-02	-1.23622378E-01
1	1	0	1	1	-8.30951594E-02	2.75822330E-02	1.74786565E-02
1	1	0	2	2	-1.03751420E-01	8.77610798E-02	-4.88012894E-03
1	1	0	3	3	2.63014446E-01	8.27416561E-02	-1.32600814E-02
1	1	0	4	3	1.44327121E-02	-4.71076110E-02	-1.63835503E-01
1	1	0	5	3	5.55798542E-02	-1.08466356E-02	-1.74098971E-01
1	1	1	1	1	-5.00656899E-02	6.52512921E-02	-1.08154008E-02
1	1	1	2	2	-1.05410738E-01	1.03031280E-01	-4.19757201E-03
1	1	1	3	3	-7.03288452E-02	-2.69325704E-01	-6.94329726E-03
1	1	1	4	3	-1.71800980E-02	-4.74812438E-02	1.77013719E-01
1	1	1	5	3	4.42366192E-02	2.17465378E-02	1.44954398E-01
