    2    2    2
    5    3
Sr        Ti        O         
    0.30000000E-01    0.30000000E-01   -0.86513075E-02    0.98069145E-03   -0.60009002E-03    0.00000000E+00
    0    0    0    1    1   -0.27702229E-01    0.53547159E-01    0.72935518E-01
    0    0    0    2    2   -0.11506058E+00    0.15370913E+00   -0.48879099E-02
    0    0    0    3    3    0.22281235E+00    0.15130210E-01   -0.66285013E-02
    0    0    0    4    3   -0.74668571E-01   -0.24252710E-01   -0.20768454E+00
    0    0    0    5    3    0.21385306E-01   -0.77812187E-03   -0.18526257E+00
    0    0    1    1    1   -0.61501492E-01    0.10638537E+00    0.39263296E-01
    0    0    1    2    2   -0.67199173E-01    0.14696663E+00    0.10266967E-02
    0    0    1    3    3   -0.14813593E+00   -0.33651988E+00   -0.47583705E-01
    0    0    1    4    3    0.85427001E-01   -0.59131191E-01    0.15084788E+00
    0    0    1    5    3    0.39744394E-01   -0.54303256E-01    0.20303983E+00
    0    1    0    1    1   -0.54608074E-01    0.71566868E-01    0.16314259E-01
    0    1    0    2    2   -0.83293695E-01    0.17651334E+00   -0.19793557E-01
    0    1    0    3    3   -0.69889315E-01   -0.29922101E+00   -0.65162109E-01
    0    1    0    4    3    0.16265304E-01   -0.83566926E-01    0.17053171E+00
    0    1    0    5    3    0.55409893E-01   -0.48524087E-01    0.12979601E+00
    0    1    1    1    1   -0.65837891E-01    0.58008052E-01   -0.20237491E-01
    0    1    1    2    2   -0.68985526E-01    0.10666963E+00   -0.22559631E-01
    0    1    1    3    3    0.26814134E+00    0.76109085E-01   -0.42994606E-01
    0    1    1    4    3    0.90782550E-02   -0.10153061E-01   -0.17823563E+00
    0    1    1    5    3    0.49941010E-01   -0.34560009E-01   -0.12837908E+00
    1    0    0    1    1   -0.59031285E-01    0.78002471E-01   -0.11369020E+00
    1    0    0    2    2   -0.15604044E+00    0.10428375E+00   -0.78179257E-02
    1    0    0    3    3   -0.79325737E-01   -0.30465473E+00    0.24526676E-01
    1    0    0    4    3    0.21097928E-01   -0.60270932E-01    0.32937312E+00
    1    0    0    5    3    0.21113839E-01   -0.33983580E-01    0.14017431E+00
    1    0    1    1    1   -0.43694308E-01    0.11518116E+00   -0.85051499E-01
    1    0    1    2    2   -0.10320784E+00    0.12329476E+00    0.44951034E-01
    1    0    1    3    3    0.24802936E+00    0.23923065E+00    0.10262476E-01
    1    0    1    4    3   -0.38251846E-01   -0.46587197E-01   -0.22434632E+00
    1    0    1    5    3    0.51137505E-01   -0.64987616E-01   -0.19125113E+00
    1    1    0    1    1   -0.34405340E-02    0.89839482E-02   -0.41537732E-01
    1    1    0    2    2   -0.12418991E+00    0.12540857E+00   -0.45351318E-01
    1    1    0    3    3    0.19590003E+00    0.14781465E+00   -0.16384629E-01
    1    1    0    4    3    0.64669262E-01   -0.82228702E-01   -0.19818613E+00
    1    1    0    5    3    0.46120943E-01    0.54054079E-01   -0.11667576E+00
    1    1    1    1    1    0.67698236E-01    0.78322054E-01    0.16396169E-01
    1    1    1    2    2   -0.38129151E-01    0.11590326E+00   -0.19466147E-01
    1    1    1    3    3   -0.68638974E-01   -0.46806681E+00    0.53983472E-01
    1    1    1    4    3    0.15392462E-01   -0.72769200E-01    0.38208029E+00
    1    1    1    5    3    0.51468090E-01   -0.70525827E-01    0.20366537E+00
