    2    2    2
    5    3
Sr        Ti        O         
    0.30000000E-01    0.30000000E-01   -0.35822453E-02   -0.12861520E-02   -0.13209381E-02    0.00000000E+00
    0    0    0    1    1   -0.61977193E-01    0.60605374E-01    0.40675905E-01
    0    0    0    2    2   -0.43964567E-01    0.14284317E+00   -0.32026378E-01
    0    0    0    3    3    0.20165286E+00   -0.29082116E-01    0.63176170E-01
    0    0    0    4    3   -0.49183317E-01   -0.61609709E-01   -0.11847517E+00
    0    0    0    5    3   -0.74371777E-02   -0.68332327E-01   -0.10510699E+00
    0    0    1    1    1   -0.54801214E-01    0.61867969E-01   -0.26028478E-01
    0    0    1    2    2   -0.77415461E-01    0.56165004E-01   -0.29033339E-01
    0    0    1    3    3   -0.47181642E-02   -0.26190410E+00   -0.18412283E-01
    0    0    1    4    3   -0.73173109E-01   -0.32258432E-01    0.11704324E-01
    0    0    1    5    3    0.20125715E-01    0.24960992E-01    0.11746607E+00
    0    1    0    1    1   -0.12430818E+00    0.92618039E-01   -0.21165076E-01
    0    1    0    2    2   -0.78565831E-01    0.15090663E+00   -0.52206040E-01
    0    1    0    3    3    0.34313171E-01   -0.14135073E+00   -0.61182041E-02
    0    1    0    4    3   -0.44746757E-02   -0.65746955E-01    0.89241830E-01
    0    1    0    5    3    0.29173576E-01   -0.10800083E-01    0.88921964E-01
    0    1    1    1    1   -0.81853368E-02    0.13394040E-01   -0.36839658E-01
    0    1    1    2    2   -0.52725319E-01    0.10935079E+00   -0.26015572E-01
    0    1    1    3    3    0.21425805E+00   -0.33349707E-02    0.32173120E-01
    0    1    1    4    3   -0.44935424E-01   -0.59099758E-01   -0.12804037E+00
    0    1    1    5    3    0.43610434E-01   -0.85401370E-01   -0.17891542E+00
    1    0    0    1    1   -0.16392091E-01    0.71546651E-01   -0.36275331E-01
    1    0    0    2    2   -0.29743465E-01    0.18635182E-01    0.23703011E-01
    1    0    0    3    3   -0.90055163E-01   -0.27493211E+00    0.26304399E-01
    1    0    0    4    3   -0.81727632E-02   -0.75307777E-01    0.22936930E+00
    1    0    0    5    3    0.81351418E-01   -0.88675532E-02    0.14547336E+00
    1    0    1    1    1   -0.23192165E-01    0.27983824E-01   -0.59664749E-01
    1    0    1    2    2   -0.10352155E+00    0.15504782E+00    0.11828834E-01
    1    0    1    3    3    0.18207595E+00    0.11711590E+00    0.32432470E-01
    1    0    1    4    3    0.75955916E-01   -0.30775092E-01   -0.11557795E+00
    1    0    1    5    3    0.14130838E-01   -0.59552332E-01   -0.13925662E+00
    1    1    0    1    1   -0.26580324E-01    0.94657825E-01    0.11130865E+00
    1    1    0    2    2   -0.79940536E-01    0.73122568E-01    0.24589051E-03
    1    1    0    3    3    0.26068662E+00    0.14489303E+00    0.38750385E-01
    1    1    0    4    3    0.29580482E-01   -0.56857757E-01   -0.16357895E+00
    1    1    0    5    3    0.29461267E-01    0.98383458E-02   -0.13025603E+00
    1    1    1    1    1   -0.43559830E-02    0.55086703E-01   -0.29769724E-01
    1    1    1    2    2   -0.75770025E-01    0.14212782E+00    0.23579689E-01
    1    1    1    3    3   -0.80687077E-01   -0.22647569E+00   -0.59849252E-02
    1    1    1    4    3   -0.41420970E-01   -0.95182449E-01    0.18159594E+00
    1    1    1    5    3    0.49320792E-01    0.24103626E-01    0.19079593E+00
