    2    2    2
    5    3
Sr        Ti        O         
    0.30000000E-01    0.30000000E-01   -0.19042695E-01    0.27058944E-02   -0.43157158E-02    0.00000000E+00
    0    0    0    1    1   -0.25017765E-01    0.70956350E-01   -0.33841087E-01
    0    0    0    2    2   -0.86270389E-01    0.79422180E-01    0.33671293E-01
    0    0    0    3    3    0.36250508E+00    0.22870210E+00   -0.10252054E-01
    0    0    0    4    3   -0.60457838E-01   -0.85602512E-02   -0.35375621E+00
    0    0    0    5    3    0.70445500E-01    0.13639285E+00   -0.23285330E+00
    0    0    1    1    1   -0.44830166E-02    0.74308406E-01    0.52111327E-01
    0    0    1    2    2   -0.12324872E+00    0.18990494E+00    0.26812980E-01
    0    0    1    3    3   -0.14499712E+00   -0.27290968E+00    0.73791975E-02
    0    0    1    4    3    0.17167167E-01   -0.12701199E-01    0.22704698E+00
    0    0    1    5    3    0.66244928E-01   -0.15563410E-01    0.21391901E+00
    0    1    0    1    1   -0.40679115E-01    0.70255167E-01   -0.14173714E-01
    0    1    0    2    2   -0.59747780E-01   -0.81045016E-02    0.10555070E-01
    0    1    0    3    3   -0.12772369E+00   -0.40958501E+00   -0.16368049E-01
    0    1    0    4    3    0.69038830E-01   -0.21954808E-01    0.22212971E+00
    0    1    0    5    3    0.81463100E-01   -0.16790028E+00    0.20179429E+00
    0    1    1    1    1   -0.10587339E+00    0.58334301E-01    0.44387072E-02
    0    1    1    2    2   -0.11968669E+00    0.13985398E+00    0.37228514E-01
    0    1    1    3    3    0.35676084E+00    0.24489148E+00    0.33522277E-02
    0    1    1    4    3   -0.74671737E-01   -0.26383129E-01   -0.14382398E+00
    0    1    1    5    3    0.47552984E-01   -0.10777257E-01   -0.22416194E+00
    1    0    0    1    1   -0.10311689E+00    0.12050698E+00   -0.55358267E-02
    1    0    0    2    2   -0.13075544E+00    0.96243097E-01   -0.71938158E-02
    1    0    0    3    3   -0.13445955E+00   -0.33170057E+00    0.13052941E-01
    1    0    0    4    3    0.12952890E+00   -0.67828409E-01    0.19478042E+00
    1    0    0    5    3    0.74433573E-01   -0.12562108E-01    0.24504530E+00
    1    0    1    1    1   -0.97657873E-01    0.26417513E-01    0.26078700E-01
    1    0    1    2    2   -0.13086026E+00    0.77743856E-01   -0.20529494E-01
    1    0    1    3    3    0.31839923E+00    0.10098599E+00    0.10874363E-01
    1    0    1    4    3    0.50827334E-01   -0.59121415E-01   -0.18218558E+00
    1    0    1    5    3    0.76967089E-01   -0.58826975E-01   -0.27417035E+00
    1    1    0    1    1   -0.79368204E-01    0.29107724E-01    0.25711993E-01
    1    1    0    2    2   -0.68873394E-01    0.56346820E-01   -0.24344008E-01
    1    1    0    3    3    0.23720172E+00    0.71940752E-01   -0.77865626E-02
    1    1    0    4    3   -0.47587343E-01   -0.46220540E-01   -0.23166313E+00
    1    1    0    5    3    0.35342490E-01   -0.76156532E-02   -0.19170304E+00
    1    1    1    1    1   -0.85695916E-01    0.39478140E-01    0.31871503E-01
    1    1    1    2    2   -0.84727699E-01    0.10353359E+00   -0.11995747E-01
    1    1    1    3    3   -0.40870926E-01   -0.35312464E+00   -0.63084845E-02
    1    1    1    4    3   -0.10668809E-01   -0.86056470E-01    0.24434154E+00
    1    1    1    5    3   -0.63792202E-02   -0.37829914E-01    0.16045030E+00
