    2    2    2
    5    3
Sr        Ti        O         
    0.00000000E+00    0.00000000E+00   -0.45654482E-02   -0.25011827E-02    0.14568354E-02    0.00000000E+00
    0    0    0    1    1   -0.89797909E-02   -0.45162014E-02    0.50242136E-01
    0    0    0    2    2   -0.64331583E-02   -0.13485588E-01    0.32613472E-01
    0    0    0    3    3    0.38942317E+00    0.22907740E+00    0.19855622E-01
    0    0    0    4    3   -0.88585610E-02   -0.22383236E-01   -0.26425525E+00
    0    0    0    5    3   -0.33675356E-01    0.31606266E-01   -0.30621570E+00
    0    0    1    1    1   -0.27617835E-01   -0.32005323E-02    0.58222835E-01
    0    0    1    2    2    0.16658935E-02    0.33133204E-01    0.89810734E-02
    0    0    1    3    3   -0.31129573E+00   -0.26895215E+00    0.37167384E-01
    0    0    1    4    3    0.20174737E-01   -0.29219044E-01    0.25470303E+00
    0    0    1    5    3    0.32556592E-01    0.23497691E-01    0.29148973E+00
    0    1    0    1    1   -0.22342590E-01    0.24554931E-01    0.27400709E-02
    0    1    0    2    2   -0.15175968E-01    0.24063124E-01    0.90287049E-02
    0    1    0    3    3   -0.30211377E+00   -0.26444182E+00    0.23120347E-01
    0    1    0    4    3    0.51474363E-01   -0.93719217E-02    0.36406967E+00
    0    1    0    5    3    0.15955861E-02   -0.46317443E-01    0.33705667E+00
    0    1    1    1    1   -0.45264575E-02   -0.19082919E-01   -0.51992712E-01
    0    1    1    2    2   -0.16127554E-01    0.29143693E-01   -0.10888183E-01
    0    1    1    3    3    0.29743564E+00    0.24347644E+00    0.99657782E-02
    0    1    1    4    3    0.12150938E-01    0.19943529E-01   -0.18233208E+00
    0    1    1    5    3    0.55181405E-02    0.42459572E-01   -0.34460403E+00
    1    0    0    1    1   -0.23854616E-03   -0.20075513E-01   -0.44830916E-01
    1    0    0    2    2   -0.61748336E-02    0.41426041E-02   -0.70861774E-02
    1    0    0    3    3   -0.31155582E+00   -0.28826808E+00   -0.28188067E-01
    1    0    0    4    3    0.35867042E-01   -0.95540422E-03    0.32777692E+00
    1    0    0    5    3   -0.36565072E-01   -0.61018316E-01    0.31840814E+00
    1    0    1    1    1   -0.14670539E-01   -0.67709205E-01   -0.57025838E-01
    1    0    1    2    2    0.16827353E-01   -0.28814119E-01    0.49558972E-02
    1    0    1    3    3    0.30256112E+00    0.29303254E+00   -0.27624552E-01
    1    0    1    4    3    0.64306565E-01   -0.71144635E-02   -0.37515013E+00
    1    0    1    5    3    0.70465090E-03    0.39634228E-01   -0.34540466E+00
    1    1    0    1    1   -0.54845894E-01    0.64785830E-01   -0.38237212E-01
    1    1    0    2    2   -0.27583985E-01   -0.39242320E-02   -0.20699182E-02
    1    1    0    3    3    0.30680429E+00    0.30790327E+00   -0.13377659E-01
    1    1    0    4    3   -0.11117110E+00    0.43869819E-01   -0.34488575E+00
    1    1    0    5    3    0.69884465E-02    0.37625245E-01   -0.34052868E+00
    1    1    1    1    1    0.34468593E-01    0.17325102E-01    0.74632788E-02
    1    1    1    2    2    0.15879729E-02   -0.32984023E-01   -0.17905241E-01
    1    1    1    3    3   -0.27061032E+00   -0.32479095E+00    0.10897924E-01
    1    1    1    4    3    0.61599877E-02   -0.34202857E-01    0.33527310E+00
    1    1    1    5    3    0.22917909E-02    0.41553535E-01    0.29857098E+00
