    2    2    2
    5    3
Sr        Ti        O         
    0.00000000E+00    0.00000000E+00   -0.54033653E-02    0.16391183E-03    0.15280663E-02    0.00000000E+00
    0    0    0    1    1    0.21988394E-01    0.97133630E-02   -0.11561477E-01
    0    0    0    2    2    0.50202423E-01   -0.34605451E-01    0.14903880E-03
    0    0    0    3    3    0.29646262E+00    0.34870143E+00    0.46020313E-01
    0    0    0    4    3   -0.55881920E-01   -0.46142541E-01   -0.31478002E+00
    0    0    0    5    3    0.16874640E-01    0.94235207E-01   -0.21700981E+00
    0    0    1    1    1   -0.56715209E-01   -0.24748469E-02   -0.31229690E-01
    0    0    1    2    2    0.92236719E-02    0.34879014E-01   -0.61354909E-02
    0    0    1    3    3   -0.23930872E+00   -0.37586712E+00    0.15557305E-01
    0    0    1    4    3   -0.13606121E-01   -0.12612942E-01    0.36741548E+00
    0    0    1    5    3   -0.24240584E-01   -0.50399349E-01    0.35372247E+00
    0    1    0    1    1   -0.46052823E-02   -0.11446180E-01    0.28097616E-01
    0    1    0    2    2   -0.31612177E-01   -0.27684305E-01    0.31475207E-02
    0    1    0    3    3   -0.27565379E+00   -0.32878918E+00   -0.19442634E-01
    0    1    0    4    3    0.10543520E+00   -0.44240438E-01    0.33340176E+00
    0    1    0    5    3    0.16254879E-01   -0.46155061E-01    0.33805776E+00
    0    1    1    1    1    0.27541407E-01    0.27391234E-01    0.19251162E-02
    0    1    1    2    2   -0.60530561E-02    0.38286722E-01   -0.45169915E-01
    0    1    1    3    3    0.26077693E+00    0.31749621E+00    0.23712141E-01
    0    1    1    4    3   -0.47935300E-01   -0.27223753E-01   -0.35690024E+00
    0    1    1    5    3    0.57980660E-02    0.23840678E-01   -0.34655134E+00
    1    0    0    1    1   -0.19187999E-01   -0.23562012E-01    0.29761885E-01
    1    0    0    2    2    0.26645084E-01    0.18189367E-01   -0.37475538E-02
    1    0    0    3    3   -0.26468531E+00   -0.26906364E+00   -0.74715187E-02
    1    0    0    4    3    0.56385104E-01    0.78915792E-02    0.34799921E+00
    1    0    0    5    3    0.17959882E-01   -0.40125167E-01    0.30726520E+00
    1    0    1    1    1    0.18831655E-01    0.12953080E-01   -0.23699396E-01
    1    0    1    2    2    0.23095855E-02    0.85893214E-02   -0.21123659E-01
    1    0    1    3    3    0.34387086E+00    0.33291760E+00    0.51386460E-02
    1    0    1    4    3   -0.59627174E-01    0.10894757E-01   -0.36353209E+00
    1    0    1    5    3   -0.22662149E-01    0.57990437E-02   -0.33990493E+00
    1    1    0    1    1    0.21637921E-01    0.25011051E-01   -0.67281209E-02
    1    1    0    2    2   -0.26920988E-01    0.92786363E-02    0.36453027E-02
    1    1    0    3    3    0.27016305E+00    0.31143032E+00   -0.27199017E-01
    1    1    0    4    3   -0.64154493E-01    0.25254879E-01   -0.32764566E+00
    1    1    0    5    3    0.16597267E-01    0.67001210E-01   -0.32482416E+00
    1    1    1    1    1   -0.37311982E-01   -0.12991758E-01    0.12000364E-01
    1    1    1    2    2   -0.17448328E-01    0.13697638E-01   -0.31748735E-02
    1    1    1    3    3   -0.35805430E+00   -0.31258493E+00   -0.25464146E-01
    1    1    1    4    3    0.52699794E-01   -0.46544177E-04    0.30286841E+00
    1    1    1    5    3   -0.11993555E-01   -0.77437124E-01    0.30341021E+00
