    2    2    2
    5    3
Sr        Ti        O         
    0.00000000E+00    0.00000000E+00   -0.53518368E-02    0.13308185E-02    0.31431327E-02    0.00000000E+00
    0    0    0    1    1   -0.38655506E-01    0.16761648E-01    0.20153798E-01
    0    0    0    2    2    0.19625412E-02   -0.11362518E-01   -0.80278651E-02
    0    0    0    3    3    0.28953447E+00    0.29979530E+00    0.10177375E-01
    0    0    0    4    3   -0.31739621E-01   -0.10513565E-01   -0.30215059E+00
    0    0    0    5    3   -0.12610999E-01    0.34788474E-01   -0.35642458E+00
    0    0    1    1    1    0.28560502E-02   -0.29987690E-01    0.10708962E-02
    0    0    1    2    2    0.12057021E-01   -0.34565595E-01    0.11151692E-01
    0    0    1    3    3   -0.32310829E+00   -0.32806738E+00   -0.67043669E-02
    0    0    1    4    3    0.58401370E-01    0.52024059E-02    0.35538274E+00
    0    0    1    5    3    0.30896980E-01    0.28071257E-01    0.30310621E+00
    0    1    0    1    1    0.37445450E-01    0.43659062E-01    0.49426064E-01
    0    1    0    2    2    0.30877236E-03    0.93699789E-02   -0.26605681E-02
    0    1    0    3    3   -0.34409980E+00   -0.35045040E+00   -0.36787732E-01
    0    1    0    4    3    0.47416961E-01    0.15374601E-01    0.39256479E+00
    0    1    0    5    3    0.16184924E-01   -0.40415066E-01    0.30257705E+00
    0    1    1    1    1   -0.10750192E-01    0.43750962E-02    0.51118265E-01
    0    1    1    2    2   -0.15799338E-01   -0.16394504E-01   -0.40310223E-02
    0    1    1    3    3    0.29123340E+00    0.32784451E+00    0.16532918E-01
    0    1    1    4    3    0.48179675E-01   -0.41059408E-01   -0.32569625E+00
    0    1    1    5    3   -0.32992167E-01    0.40910769E-02   -0.32687837E+00
    1    0    0    1    1    0.32090266E-01    0.19191045E-01   -0.36390204E-01
    1    0    0    2    2   -0.28431885E-02    0.19499112E-01   -0.94373644E-02
    1    0    0    3    3   -0.34736112E+00   -0.32906161E+00   -0.30895466E-01
    1    0    0    4    3    0.25682658E-01   -0.21007016E-02    0.31601965E+00
    1    0    0    5    3    0.68912642E-02   -0.95981473E-02    0.32546873E+00
    1    0    1    1    1    0.49895374E-01   -0.50988624E-01    0.33769633E-01
    1    0    1    2    2    0.23637938E-01    0.42593093E-02   -0.13572685E-01
    1    0    1    3    3    0.26064571E+00    0.35585122E+00   -0.11857352E-01
    1    0    1    4    3    0.50773035E-01    0.49130880E-02   -0.34133416E+00
    1    0    1    5    3    0.32744224E-01    0.41254043E-04   -0.36998434E+00
    1    1    0    1    1    0.23398291E-01   -0.50468350E-01    0.20646872E-01
    1    1    0    2    2   -0.21962725E-01   -0.20209400E-01   -0.67112318E-02
    1    1    0    3    3    0.26263740E+00    0.30457044E+00   -0.14876401E-01
    1    1    0    4    3   -0.36223974E-01    0.60106335E-02   -0.36152673E+00
    1    1    0    5    3   -0.11873310E-01   -0.71387133E-02   -0.30774245E+00
    1    1    1    1    1   -0.54316392E-01    0.20168064E-01    0.58163748E-01
    1    1    1    2    2   -0.37829107E-01   -0.14577323E-02    0.10931312E-01
    1    1    1    3    3   -0.32548747E+00   -0.28478611E+00   -0.20840017E-01
    1    1    1    4    3    0.47819995E-01   -0.24891800E-02    0.29588648E+00
    1    1    1    5    3   -0.50405686E-02    0.97277109E-01    0.32038152E+00
