    2    2    2
    5    3
Sr        Ti        O         
    0.00000000E+00    0.00000000E+00   -0.53251406E-02   -0.46237515E-03    0.20396705E-02    0.00000000E+00
    0    0    0    1    1    0.44668088E-01    0.50922930E-01   -0.35864087E-01
    0    0    0    2    2   -0.11925113E-01   -0.37420671E-01    0.34461282E-02
    0    0    0    3    3    0.36166412E+00    0.24811941E+00    0.33844994E-01
    0    0    0    4    3    0.39193666E-01    0.24376890E-01   -0.18926721E+00
    0    0    0    5    3   -0.55445582E-02    0.60664140E-01   -0.34862201E+00
    0    0    1    1    1   -0.25358025E-01   -0.35377205E-01   -0.15137985E-01
    0    0    1    2    2    0.97295565E-02    0.40167928E-01   -0.25639572E-01
    0    0    1    3    3   -0.33188824E+00   -0.26570435E+00    0.15228975E-01
    0    0    1    4    3   -0.36968911E-01   -0.27241718E-02    0.26330071E+00
    0    0    1    5    3   -0.24330033E-01   -0.17968754E-02    0.30163870E+00
    0    1    0    1    1    0.30343887E-01   -0.40091831E-01    0.36082225E-01
    0    1    0    2    2   -0.10725112E-01   -0.25636674E-01    0.12283783E-01
    0    1    0    3    3   -0.30773464E+00   -0.22726685E+00    0.13725379E-01
    0    1    0    4    3    0.69573507E-01    0.23201691E-01    0.28489533E+00
    0    1    0    5    3    0.93696378E-02    0.30845387E-01    0.37916175E+00
    0    1    1    1    1    0.42808738E-01   -0.32518175E-01   -0.86006799E-02
    0    1    1    2    2    0.25056603E-01    0.21097207E-01    0.16728770E-01
    0    1    1    3    3    0.34184321E+00    0.23548715E+00    0.15221899E-01
    0    1    1    4    3   -0.22441677E-01   -0.18831470E-01   -0.21251159E+00
    0    1    1    5    3   -0.25265193E-02   -0.14118890E-01   -0.37820745E+00
    1    0    0    1    1    0.14549094E-02    0.20383588E-01   -0.33979466E-02
    1    0    0    2    2   -0.19207194E-01    0.17316788E-01    0.21352167E-01
    1    0    0    3    3   -0.28237419E+00   -0.34885949E+00   -0.39529168E-01
    1    0    0    4    3   -0.70610294E-02   -0.77069284E-02    0.35576500E+00
    1    0    0    5    3    0.19330774E-01   -0.12984361E-01    0.34040490E+00
    1    0    1    1    1   -0.80306673E-02   -0.88935763E-02   -0.18278394E-01
    1    0    1    2    2   -0.24814257E-01   -0.27406979E-02    0.50232517E-02
    1    0    1    3    3    0.33522101E+00    0.32439201E+00   -0.11249256E-01
    1    0    1    4    3   -0.72005740E-01   -0.58302856E-02   -0.39644363E+00
    1    0    1    5    3   -0.89133632E-02    0.95734968E-02   -0.35034026E+00
    1    1    0    1    1    0.12778316E-01    0.71345566E-02    0.69974271E-03
    1    1    0    2    2   -0.27039735E-01   -0.14350807E-01    0.38946501E-02
    1    1    0    3    3    0.31252932E+00    0.33829231E+00   -0.29268634E-01
    1    1    0    4    3   -0.38686028E-01    0.13017341E-02   -0.36355064E+00
    1    1    0    5    3    0.11908723E-01    0.23001423E-01   -0.30905648E+00
    1    1    1    1    1   -0.27200719E-01    0.30543724E-01   -0.59820575E-01
    1    1    1    2    2   -0.20090247E-02   -0.12231467E-01    0.60884509E-02
    1    1    1    3    3   -0.32923420E+00   -0.38500327E+00   -0.31105255E-01
    1    1    1    4    3   -0.12325302E-01   -0.23066148E-01    0.33390804E+00
    1    1    1    5    3   -0.29129781E-01    0.16331826E-01    0.38319599E+00
