    2    2    2
    5    3
Sr        Ti        O         
    0.00000000E+00    0.00000000E+00   -0.45049883E-02   -0.18292920E-03    0.23644078E-02    0.00000000E+00
    0    0    0    1    1    0.27526322E-01    0.65470281E-02    0.64187941E-02
    0    0    0    2    2    0.47397995E-01   -0.30665053E-01   -0.22045407E-01
    0    0    0    3    3    0.19157330E+00    0.28427343E+00    0.50761133E-02
    0    0    0    4    3   -0.21176028E-01   -0.20528663E-01   -0.30166854E+00
    0    0    0    5    3   -0.14576686E-01    0.44904684E-01   -0.22455143E+00
    0    0    1    1    1   -0.59286470E-01   -0.88462273E-02   -0.30688784E-01
    0    0    1    2    2   -0.30663384E-01    0.48196371E-01   -0.12015519E-01
    0    0    1    3    3   -0.24253249E+00   -0.36660991E+00   -0.14410625E-02
    0    0    1    4    3   -0.22989920E-01    0.20388168E-01    0.29861973E+00
    0    0    1    5    3   -0.15768918E-01   -0.19067828E-01    0.27249132E+00
    0    1    0    1    1   -0.18758170E-01   -0.24010106E-01   -0.20063554E-02
    0    1    0    2    2   -0.51321075E-01    0.63055826E-02    0.98070093E-02
    0    1    0    3    3   -0.25205148E+00   -0.33845541E+00    0.96137126E-02
    0    1    0    4    3    0.85655740E-01    0.99296922E-02    0.37228040E+00
    0    1    0    5    3    0.21678875E-03   -0.65402460E-01    0.32330000E+00
    0    1    1    1    1   -0.26660518E-01   -0.15832450E-01   -0.18565449E-01
    0    1    1    2    2   -0.31394062E-01    0.24488718E-01   -0.77831320E-02
    0    1    1    3    3    0.33079587E+00    0.28400783E+00    0.25675837E-01
    0    1    1    4    3    0.28958515E-01   -0.27417935E-01   -0.28495480E+00
    0    1    1    5    3    0.35308006E-01   -0.37687436E-01   -0.27236741E+00
    1    0    0    1    1   -0.12434388E-01   -0.42896139E-01   -0.30700793E-01
    1    0    0    2    2   -0.73480192E-03    0.25148504E-01   -0.45786896E-01
    1    0    0    3    3   -0.22544339E+00   -0.26570416E+00    0.18808371E-02
    1    0    0    4    3    0.35731166E-01   -0.31412138E-01    0.30293810E+00
    1    0    0    5    3    0.56899081E-02   -0.76941787E-01    0.23157350E+00
    1    0    1    1    1    0.18855506E-01    0.48711820E-01   -0.16974845E-01
    1    0    1    2    2   -0.30928376E-01    0.38489600E-01   -0.39811422E-02
    1    0    1    3    3    0.26900174E+00    0.38551082E+00    0.21789198E-01
    1    0    1    4    3   -0.15083427E-01   -0.19046796E-02   -0.31302752E+00
    1    0    1    5    3   -0.17848800E-02    0.27765613E-01   -0.30440419E+00
    1    1    0    1    1    0.23688420E-01    0.18025705E-01    0.11042014E-01
    1    1    0    2    2   -0.60404291E-01    0.15916119E-01   -0.27946859E-01
    1    1    0    3    3    0.31297739E+00    0.29344187E+00    0.67590568E-02
    1    1    0    4    3   -0.83503243E-01   -0.82273434E-02   -0.28042242E+00
    1    1    0    5    3   -0.61789623E-04    0.57763929E-01   -0.29523438E+00
    1    1    1    1    1   -0.30032115E-02    0.46789955E-01   -0.11620029E-01
    1    1    1    2    2   -0.17752673E-01    0.28506006E-01   -0.18278168E-01
    1    1    1    3    3   -0.22021498E+00   -0.35027977E+00   -0.77742308E-02
    1    1    1    4    3    0.41905170E-01    0.21218524E-01    0.35042463E+00
    1    1    1    5    3    0.32468279E-02   -0.44404765E-02    0.28454914E+00
