    2    2    2
    5    3
Sr        Ti        O         
    0.00000000E+00    0.00000000E+00   -0.17176828E-02    0.28075437E-04    0.31527508E-03    0.00000000E+00
    0    0    0    1    1   -0.90326243E-02    0.49633758E-01    0.38646777E-01
    0    0    0    2    2   -0.55464111E-01    0.81823954E-01   -0.38763022E-01
    0    0    0    3    3    0.17763547E+00    0.14317468E+00   -0.16228841E-01
    0    0    0    4    3   -0.37596730E-01    0.17158505E-01   -0.16700780E+00
    0    0    0    5    3    0.31780124E-01    0.42974142E-01   -0.18588068E+00
    0    0    1    1    1   -0.55924633E-01    0.45850008E-01    0.61953101E-02
    0    0    1    2    2   -0.93251928E-01    0.60751580E-01   -0.25077805E-01
    0    0    1    3    3   -0.17091053E+00   -0.22553649E+00    0.11630223E-01
    0    0    1    4    3    0.14830116E-01   -0.14462934E-01    0.17700887E+00
    0    0    1    5    3    0.13434653E-01   -0.25070338E-01    0.18947232E+00
    0    1    0    1    1   -0.64130964E-02    0.10170121E+00    0.26010830E-01
    0    1    0    2    2   -0.93635646E-01    0.59095570E-01    0.73763665E-02
    0    1    0    3    3   -0.17237011E+00   -0.25186394E+00   -0.15660679E-01
    0    1    0    4    3    0.96371241E-01   -0.21465799E-02    0.17688187E+00
    0    1    0    5    3    0.13520839E-01   -0.14662224E+00    0.20811328E+00
    0    1    1    1    1   -0.30748243E-01    0.65462685E-01   -0.56622058E-02
    0    1    1    2    2   -0.62779133E-01    0.39822183E-01    0.11790006E-01
    0    1    1    3    3    0.29745508E+00    0.12298221E+00    0.28169799E-02
    0    1    1    4    3   -0.16653443E-01   -0.12603206E-01   -0.16197491E+00
    0    1    1    5    3    0.34095991E-02    0.18989175E-01   -0.24166721E+00
    1    0    0    1    1   -0.40665689E-01    0.50398056E-01   -0.49571498E-01
    1    0    0    2    2   -0.82594509E-02    0.23253562E-01    0.12106286E-01
    1    0    0    3    3   -0.14137414E+00   -0.31093115E+00    0.29228599E-01
    1    0    0    4    3    0.12147486E+00   -0.66273740E-01    0.25562842E+00
    1    0    0    5    3    0.19671186E-01   -0.96965083E-01    0.25529135E+00
    1    0    1    1    1   -0.34907648E-01    0.67355368E-02    0.15900105E-01
    1    0    1    2    2   -0.36898626E-01    0.49855010E-01   -0.71000988E-02
    1    0    1    3    3    0.30978284E+00    0.18501909E+00    0.20681838E-01
    1    0    1    4    3    0.87378053E-02   -0.13091328E-01   -0.27188576E+00
    1    0    1    5    3   -0.31024476E-02    0.47975203E-01   -0.17228904E+00
    1    1    0    1    1   -0.34959251E-01    0.25617145E-01   -0.96501632E-02
    1    1    0    2    2   -0.88642540E-01    0.17652747E-01   -0.89592806E-02
    1    1    0    3    3    0.32834971E+00    0.16244552E+00   -0.21619951E-01
    1    1    0    4    3   -0.43737148E-02   -0.21592658E-01   -0.29018927E+00
    1    1    0    5    3   -0.52666679E-02    0.77043491E-01   -0.19610924E+00
    1    1    1    1    1   -0.77041617E-02    0.10133425E-01    0.23555670E-01
    1    1    1    2    2   -0.24149923E-01    0.41133507E-01   -0.95194634E-02
    1    1    1    3    3   -0.21670952E+00   -0.28965388E+00   -0.22799691E-01
    1    1    1    4    3   -0.55432807E-03    0.25049661E-02    0.24717194E+00
    1    1    1    5    3    0.15894814E-01   -0.72373355E-01    0.20210957E+00
