    2    2    2
    5    3
Sr        Ti        O         
    0.00000000E+00    0.00000000E+00   -0.57602078E-02    0.12239347E-02   -0.14895703E-02    0.00000000E+00
    0    0    0    1    1   -0.15269474E-01    0.15530053E-01   -0.65319351E-01
    0    0    0    2    2    0.17792044E-01   -0.32683365E-01    0.36236452E-01
    0    0    0    3    3    0.30779312E+00    0.31266190E+00    0.47730979E-01
    0    0    0    4    3   -0.10898838E+00   -0.10789998E-01   -0.38864755E+00
    0    0    0    5    3   -0.46388157E-02    0.12203164E+00   -0.31588186E+00
    0    0    1    1    1   -0.31092932E-01    0.19282814E-01   -0.64779571E-02
    0    0    1    2    2    0.16665843E-01   -0.14180962E-01    0.47563431E-01
    0    0    1    3    3   -0.29408024E+00   -0.34764045E+00    0.48701980E-01
    0    0    1    4    3    0.37757116E-01   -0.45729375E-01    0.35125028E+00
    0    0    1    5    3   -0.18763993E-01   -0.28886345E-01    0.30579307E+00
    0    1    0    1    1    0.13938233E-01   -0.13767171E-01    0.33740612E-01
    0    1    0    2    2    0.32356983E-01   -0.40425785E-01   -0.30686095E-01
    0    1    0    3    3   -0.22421267E+00   -0.37657215E+00   -0.18971322E-01
    0    1    0    4    3    0.46983630E-01    0.23322791E-01    0.31844502E+00
    0    1    0    5    3   -0.67623516E-02   -0.64353543E-01    0.28695721E+00
    0    1    1    1    1    0.19559572E-01    0.31065860E-01    0.62082271E-02
    0    1    1    2    2    0.16275108E-01   -0.97917773E-02    0.49743321E-03
    0    1    1    3    3    0.31095902E+00    0.32220142E+00    0.26462860E-03
    0    1    1    4    3   -0.96949564E-02   -0.12785043E-01   -0.27200923E+00
    0    1    1    5    3    0.17439394E-01    0.24052656E-02   -0.34431188E+00
    1    0    0    1    1    0.54372468E-01    0.12082448E-01   -0.21264378E-01
    1    0    0    2    2   -0.10786313E-01    0.13388276E-01    0.21020480E-01
    1    0    0    3    3   -0.33510212E+00   -0.29155937E+00    0.77767113E-03
    1    0    0    4    3    0.22334438E-01   -0.17376551E-01    0.27902773E+00
    1    0    0    5    3    0.65178584E-02   -0.71137259E-01    0.27000049E+00
    1    0    1    1    1    0.33766445E-02   -0.23604753E-01    0.60519455E-01
    1    0    1    2    2    0.11095857E-01    0.20757880E-01    0.25265491E-03
    1    0    1    3    3    0.27528035E+00    0.31681460E+00    0.19117681E-02
    1    0    1    4    3    0.11806097E-01    0.35681606E-02   -0.34398194E+00
    1    0    1    5    3   -0.12780294E-02    0.52545772E-02   -0.27763718E+00
    1    1    0    1    1   -0.32140003E-01    0.71257669E-02    0.43197895E-01
    1    1    0    2    2    0.16056869E-01    0.10726320E-01   -0.20555645E-01
    1    1    0    3    3    0.29455118E+00    0.31053436E+00   -0.25014361E-01
    1    1    0    4    3   -0.52303434E-01   -0.11443556E-01   -0.29920769E+00
    1    1    0    5    3   -0.16640973E-01    0.10871508E+00   -0.25361270E+00
    1    1    1    1    1    0.21397792E-01    0.32555906E-01    0.99131362E-02
    1    1    1    2    2   -0.13251471E-01    0.13479952E-01   -0.36646112E-01
    1    1    1    3    3   -0.34931476E+00   -0.30003815E+00   -0.37254423E-01
    1    1    1    4    3   -0.37355087E-01    0.16576690E-01    0.30102103E+00
    1    1    1    5    3    0.73663860E-02   -0.73161615E-02    0.28644803E+00
