    2    2    2
    5    3
Sr        Ti        O         
    0.30000000E-01    0.30000000E-01   -0.16610270E-01   -0.26632623E-02    0.12730229E-03    0.00000000E+00
    0    0    0    1    1   -0.50792601E-01   -0.75541009E-01   -0.39202436E-01
    0    0    0    2    2   -0.13472458E+00   -0.85983974E-01   -0.16149370E-02
    0    0    0    3    3    0.13093638E+00    0.14054823E+00    0.10409581E-01
    0    0    0    4    3    0.30689716E-02    0.95002192E-01    0.23872171E-02
    0    0    0    5    3    0.50428206E-01    0.42900005E-01    0.55134941E-01
    0    0    1    1    1   -0.20556336E-01   -0.38648175E-01   -0.13235199E-02
    0    0    1    2    2   -0.14660706E+00   -0.10403118E+00   -0.10630366E-01
    0    0    1    3    3    0.46773990E-01    0.12301024E+00    0.99990046E-02
    0    0    1    4    3    0.11129280E+00    0.52333559E-01   -0.32973634E-01
    0    0    1    5    3    0.75002806E-01    0.31427231E-02   -0.17347235E-01
    0    1    0    1    1   -0.10435862E+00   -0.80369130E-01   -0.11231764E-01
    0    1    0    2    2   -0.12686101E+00   -0.12381150E+00   -0.24103126E-01
    0    1    0    3    3    0.21869511E+00    0.65988257E-01    0.14756411E-01
    0    1    0    4    3    0.22173769E-01    0.73855693E-01    0.17959958E-01
    0    1    0    5    3    0.34780590E-01   -0.13695594E-01   -0.99426296E-01
    0    1    1    1    1   -0.28706237E-01   -0.84235907E-01   -0.79056573E-01
    0    1    1    2    2   -0.11566694E+00   -0.14893274E+00   -0.15267615E-01
    0    1    1    3    3   -0.27046017E-01    0.14135966E+00    0.40334841E-01
    0    1    1    4    3    0.59680039E-01    0.41242199E-01    0.77138492E-02
    0    1    1    5    3    0.37597063E-01   -0.65429819E-02    0.12199405E+00
    1    0    0    1    1   -0.85767849E-01   -0.84592863E-01    0.99543319E-01
    1    0    0    2    2   -0.11196391E+00   -0.53397875E-01    0.22678678E-01
    1    0    0    3    3    0.19016706E+00    0.11367867E+00    0.11733063E-01
    1    0    0    4    3    0.71244842E-01    0.53350286E-01   -0.17257844E-01
    1    0    0    5    3    0.61616718E-01    0.32645555E-01    0.35274867E-01
    1    0    1    1    1   -0.94674133E-01   -0.14735080E-01    0.13235670E-01
    1    0    1    2    2   -0.14750039E+00   -0.10223994E+00   -0.20597556E-01
    1    0    1    3    3    0.14054970E+00    0.11702166E+00   -0.58697376E-02
    1    0    1    4    3    0.18825001E-01    0.52039971E-02    0.24680395E-01
    1    0    1    5    3    0.77649465E-01   -0.56890607E-02   -0.71070748E-02
    1    1    0    1    1   -0.75485002E-01   -0.94706508E-01   -0.22589547E-01
    1    1    0    2    2   -0.13427337E+00   -0.45994851E-01    0.35715619E-02
    1    1    0    3    3   -0.37440081E-01    0.11408019E+00    0.12138058E-01
    1    1    0    4    3   -0.51804940E-01    0.47536002E-01    0.21673621E-01
    1    1    0    5    3    0.21870593E-01    0.43269849E-01    0.83727674E-01
    1    1    1    1    1   -0.72621245E-01   -0.38684615E-01   -0.59068815E-01
    1    1    1    2    2   -0.12199520E+00   -0.11170829E+00    0.15153613E-01
    1    1    1    3    3    0.22081413E+00    0.49675973E-01   -0.28834919E-01
    1    1    1    4    3    0.75417141E-01    0.31373531E-01   -0.32091217E-01
    1    1    1    5    3    0.20261142E-01   -0.73677196E-01   -0.98506164E-01
