    2    2    2
    5    3
Sr        Ti        O         
    0.30000000E-01    0.30000000E-01   -0.18598094E-01    0.71052330E-03    0.80132319E-03    0.00000000E+00
    0    0    0    1    1   -0.61377865E-01   -0.18588754E-01    0.38181884E-01
    0    0    0    2    2   -0.15181011E+00   -0.16636608E+00   -0.14055518E-01
    0    0    0    3    3   -0.24969693E-01    0.23397373E+00   -0.17535170E-01
    0    0    0    4    3   -0.10753611E-02    0.41968893E-01   -0.18220550E+00
    0    0    0    5    3    0.40579337E-01    0.24610985E-01    0.11336534E+00
    0    0    1    1    1   -0.50679795E-01   -0.62469806E-01    0.16504174E-01
    0    0    1    2    2   -0.11956483E+00   -0.14648560E+00    0.17585728E-01
    0    0    1    3    3    0.20916998E+00   -0.10296718E-01   -0.76774197E-02
    0    0    1    4    3    0.75315059E-01    0.61166284E-01    0.10323661E+00
    0    0    1    5    3    0.36100106E-01   -0.10767969E-01   -0.76254123E-01
    0    1    0    1    1   -0.78156426E-01   -0.20501956E-01    0.43639124E-01
    0    1    0    2    2   -0.10448802E+00   -0.12994913E+00   -0.18424458E-01
    0    1    0    3    3    0.30571492E+00    0.21972825E-02   -0.12588854E-02
    0    1    0    4    3   -0.10890356E-01    0.62898312E-01    0.15496376E+00
    0    1    0    5    3    0.57133916E-01    0.34642378E-01   -0.23590977E+00
    0    1    1    1    1   -0.69922565E-01   -0.34536665E-01    0.42725184E-01
    0    1    1    2    2   -0.91389952E-01   -0.14770218E+00   -0.34401285E-01
    0    1    1    3    3   -0.76736404E-01    0.33286387E+00   -0.36595793E-01
    0    1    1    4    3    0.12771402E-01    0.81277118E-01   -0.11889763E+00
    0    1    1    5    3    0.68992402E-01    0.43004872E-02    0.16074023E+00
    1    0    0    1    1   -0.53020931E-01   -0.82922119E-01   -0.74081080E-02
    1    0    0    2    2   -0.12974941E+00   -0.93777935E-01    0.25195080E-01
    1    0    0    3    3    0.20321645E+00   -0.16017914E-01    0.41566714E-01
    1    0    0    4    3   -0.45185272E-01    0.62514474E-01    0.10571513E+00
    1    0    0    5    3    0.49256884E-01    0.58477482E-01   -0.91545071E-01
    1    0    1    1    1   -0.71495543E-01   -0.60205221E-01   -0.10927681E-01
    1    0    1    2    2   -0.12915469E+00   -0.13357478E+00    0.28750871E-01
    1    0    1    3    3    0.31296469E-01    0.17720320E+00    0.17595735E-01
    1    0    1    4    3    0.41196624E-02    0.37220035E-01   -0.10948562E+00
    1    0    1    5    3    0.20036802E-01    0.75675102E-01    0.11790233E+00
    1    1    0    1    1   -0.48700766E-01   -0.56231708E-01   -0.65761056E-01
    1    1    0    2    2   -0.78036625E-01   -0.97886462E-01   -0.30794682E-03
    1    1    0    3    3   -0.11663325E+00    0.18545700E+00   -0.26243285E-01
    1    1    0    4    3    0.70497903E-01    0.57510509E-01   -0.52188140E-01
    1    1    0    5    3    0.73506899E-01   -0.54278650E-01    0.22272047E+00
    1    1    1    1    1   -0.66503484E-01   -0.41888508E-01   -0.61271025E-01
    1    1    1    2    2   -0.96127061E-01   -0.14543191E+00    0.23187337E-01
    1    1    1    3    3    0.32421091E+00   -0.16512067E-02    0.97246046E-02
    1    1    1    4    3    0.36582775E-01    0.26460397E-01    0.98940621E-01
    1    1    1    5    3    0.57166535E-01   -0.28886264E-01   -0.21388744E+00
