    2    2    2
    5    3
Sr        Ti        O         
    0.30000000E-01    0.30000000E-01   -0.19989021E-01   -0.20256930E-03    0.17304286E-02    0.00000000E+00
    0    0    0    1    1   -0.32949067E-01   -0.39714765E-01   -0.62310377E-01
    0    0    0    2    2   -0.17567225E+00   -0.94087869E-01    0.83711783E-03
    0    0    0    3    3    0.46397982E-01    0.16890322E+00    0.13441944E-01
    0    0    0    4    3   -0.42060008E-01    0.52404588E-01   -0.39745905E-01
    0    0    0    5    3    0.20089191E-01    0.18751247E-01    0.51246651E-01
    0    0    1    1    1   -0.83296415E-01   -0.78867689E-01   -0.80208971E-01
    0    0    1    2    2   -0.15490730E+00   -0.15509975E+00   -0.90425537E-02
    0    0    1    3    3    0.16273083E+00    0.97196312E-01   -0.15067367E-01
    0    0    1    4    3    0.73113425E-01    0.65547740E-01    0.10414934E+00
    0    0    1    5    3    0.45497488E-01    0.13161263E-01   -0.58477139E-01
    0    1    0    1    1   -0.90101571E-01   -0.11227933E+00    0.54774118E-01
    0    1    0    2    2   -0.99655961E-01   -0.87110153E-01    0.20404904E-01
    0    1    0    3    3    0.24384327E+00    0.11212225E+00    0.16180477E-01
    0    1    0    4    3   -0.31856415E-01    0.64287605E-01    0.10953668E-01
    0    1    0    5    3    0.36056040E-01    0.12735930E-01   -0.18593386E+00
    0    1    1    1    1   -0.90479095E-01   -0.39848480E-01   -0.72246742E-02
    0    1    1    2    2   -0.12377910E+00   -0.11013923E+00    0.27568021E-01
    0    1    1    3    3   -0.60642564E-01    0.13178491E+00    0.30361105E-01
    0    1    1    4    3    0.76406843E-01    0.41498598E-01    0.92993552E-03
    0    1    1    5    3    0.73434479E-01    0.54156790E-01    0.12814059E+00
    1    0    0    1    1   -0.82695256E-01   -0.12351798E-01   -0.86079531E-02
    1    0    0    2    2   -0.15550791E+00   -0.13239550E+00   -0.13110381E-01
    1    0    0    3    3    0.21322112E+00    0.58345204E-01    0.52080476E-02
    1    0    0    4    3   -0.13458515E-01    0.41681272E-01    0.17536047E-01
    1    0    0    5    3    0.37004653E-01   -0.48779832E-02   -0.46176980E-01
    1    0    1    1    1   -0.13270695E-01   -0.90124262E-01   -0.28374096E-01
    1    0    1    2    2   -0.13514484E+00   -0.13556428E+00   -0.29280066E-01
    1    0    1    3    3    0.10680882E+00    0.81366443E-01   -0.70607889E-02
    1    0    1    4    3    0.72278596E-01    0.33595180E-01    0.25348773E-01
    1    0    1    5    3    0.93445080E-01    0.45861375E-01    0.96459315E-01
    1    1    0    1    1   -0.87550549E-01   -0.69742259E-01    0.44963158E-01
    1    1    0    2    2   -0.78811184E-01   -0.13710266E+00   -0.21920259E-01
    1    1    0    3    3   -0.76915597E-01    0.82289124E-01   -0.22120884E-01
    1    1    0    4    3    0.13136161E-01    0.57766436E-01   -0.48401586E-01
    1    1    0    5    3    0.19677148E-01    0.17052863E-01    0.15646592E+00
    1    1    1    1    1   -0.93108323E-01   -0.30912337E-01    0.77781087E-01
    1    1    1    2    2   -0.94633783E-01   -0.10463064E+00   -0.58126205E-02
    1    1    1    3    3    0.28494169E+00    0.10704423E+00    0.25416862E-02
    1    1    1    4    3    0.15088208E+00    0.36587699E-01   -0.20350102E-01
    1    1    1    5    3    0.47531519E-01    0.40708707E-01   -0.17606535E+00
