    2    2    2
    5    3
Sr        Ti        O         
    0.30000000E-01    0.30000000E-01   -0.41850902E-02    0.69564974E-03    0.89073338E-03    0.00000000E+00
    0    0    0    1    1    0.15013656E-01   -0.50811506E-01    0.30031926E-01
    0    0    0    2    2   -0.87115570E-01    0.96463617E-01    0.37254953E-02
    0    0    0    3    3   -0.11952660E-01    0.90785540E-02    0.89064330E-02
    0    0    0    4    3   -0.21577391E-01   -0.78494956E-01   -0.13058597E-01
    0    0    0    5    3    0.24325633E-01    0.34673004E-01   -0.24896356E-01
    0    0    1    1    1   -0.56300098E-01   -0.70917593E-01   -0.23666609E-01
    0    0    1    2    2   -0.10620260E+00   -0.28191025E-01    0.35593854E-01
    0    0    1    3    3    0.46700539E-01    0.39718325E-01    0.27626073E-02
    0    0    1    4    3    0.30867789E-01    0.31256916E-01    0.47141355E-01
    0    0    1    5    3    0.48843671E-01   -0.44700471E-01    0.12153846E-01
    0    1    0    1    1   -0.18363790E-01    0.34097808E-01   -0.24971643E-01
    0    1    0    2    2    0.29675538E-01    0.65395866E-01   -0.14876465E-01
    0    1    0    3    3    0.12761500E-01   -0.32642346E-02    0.15178169E-01
    0    1    0    4    3   -0.40522072E-01   -0.47437324E-01    0.21725752E-01
    0    1    0    5    3   -0.19580347E-01   -0.36418598E-02   -0.14828770E-01
    0    1    1    1    1    0.66270502E-02   -0.48555450E-01    0.41908906E-01
    0    1    1    2    2    0.44824982E-01   -0.35454981E-01   -0.16708733E-01
    0    1    1    3    3    0.14557000E-01   -0.67283962E-01    0.28412386E-01
    0    1    1    4    3   -0.34307399E-01    0.29159884E-01    0.44150011E-01
    0    1    1    5    3   -0.77966108E-02    0.10372291E-01    0.71011430E-01
    1    0    0    1    1   -0.47441067E-01    0.12745491E-01    0.33997023E-01
    1    0    0    2    2   -0.71154851E-01   -0.13123907E+00   -0.38321791E-01
    1    0    0    3    3    0.64301227E-01    0.55447339E-01   -0.28165483E-01
    1    0    0    4    3    0.18972260E-01    0.22484465E-01    0.86761877E-02
    1    0    0    5    3    0.39697373E-01    0.10569722E-02   -0.24844418E-01
    1    0    1    1    1    0.20511825E-01    0.12404384E-01   -0.20645983E-01
    1    0    1    2    2   -0.71024244E-01    0.30940752E-01   -0.92045459E-02
    1    0    1    3    3    0.42863636E-01    0.34492567E-01   -0.44354070E-01
    1    0    1    4    3    0.64746691E-01    0.46035398E-01   -0.10715581E-01
    1    0    1    5    3    0.24084993E-01    0.75828995E-02    0.76597504E-02
    1    1    0    1    1    0.37663112E-01   -0.18437325E-01   -0.52438217E-02
    1    1    0    2    2   -0.96196665E-02   -0.13325086E+00   -0.50355535E-02
    1    1    0    3    3   -0.39547087E-01    0.61941022E-01   -0.39948990E-02
    1    1    0    4    3   -0.75787752E-01    0.17380279E-01   -0.36670191E-01
    1    1    0    5    3    0.74688608E-02    0.66425496E-02    0.13183181E-01
    1    1    1    1    1   -0.16423831E-02   -0.12420184E-02   -0.21283534E-01
    1    1    1    2    2    0.69682482E-01    0.74345717E-01    0.10740990E-01
    1    1    1    3    3    0.57673953E-01    0.15809107E-01   -0.22949450E-01
    1    1    1    4    3   -0.53121417E-03    0.77965582E-02   -0.34621606E-01
    1    1    1    5    3   -0.13969683E-02    0.56008737E-02    0.20987991E-02
