    2    2    2
    5    3
Sr        Ti        O         
    0.30000000E-01    0.30000000E-01   -0.19386228E-01   -0.17450691E-02    0.21910150E-02    0.00000000E+00
    0    0    0    1    1   -0.93248925E-01   -0.56105603E-02   -0.31626475E-01
    0    0    0    2    2   -0.15830195E+00   -0.13335617E+00    0.41177719E-01
    0    0    0    3    3    0.20732886E-01    0.22117597E+00   -0.47254968E-02
    0    0    0    4    3    0.47877425E-01    0.36273312E-01   -0.54760859E-01
    0    0    0    5    3    0.51708369E-01    0.26261542E-01    0.80294859E-01
    0    0    1    1    1   -0.90294957E-01   -0.91260067E-01    0.18285096E-01
    0    0    1    2    2   -0.14502343E+00   -0.15049212E+00    0.16181418E-01
    0    0    1    3    3    0.22767528E+00    0.26089697E-01   -0.48623580E-02
    0    0    1    4    3    0.82623369E-01    0.49161915E-01    0.52232941E-01
    0    0    1    5    3    0.68870152E-01    0.29315198E-01   -0.13248758E+00
    0    1    0    1    1   -0.43845777E-01   -0.57463763E-01    0.34588227E-01
    0    1    0    2    2   -0.12205793E+00   -0.13919740E+00   -0.50756575E-01
    0    1    0    3    3    0.33219236E+00    0.79513058E-02   -0.24868842E-01
    0    1    0    4    3   -0.46233004E-01    0.86880028E-01    0.82057707E-01
    0    1    0    5    3    0.70017165E-01    0.24194612E-01   -0.28090923E+00
    0    1    1    1    1   -0.60782739E-01   -0.69281439E-01    0.28486916E-01
    0    1    1    2    2   -0.12060722E+00   -0.13241186E+00   -0.26305048E-01
    0    1    1    3    3   -0.15048207E+00    0.20178357E+00   -0.16265696E-01
    0    1    1    4    3    0.44041627E-01    0.18511188E-01   -0.12497241E+00
    0    1    1    5    3    0.46614177E-01   -0.14922184E-01    0.20171885E+00
    1    0    0    1    1   -0.27865858E-01   -0.72672999E-01   -0.45477017E-02
    1    0    0    2    2   -0.13642039E+00   -0.14729979E+00    0.33269933E-01
    1    0    0    3    3    0.18737362E+00    0.32530810E-01   -0.50042386E-02
    1    0    0    4    3    0.37525491E-01    0.69706822E-01   -0.54023714E-02
    1    0    0    5    3    0.49106925E-01    0.64687443E-01   -0.86139916E-01
    1    0    1    1    1   -0.50710695E-01   -0.47600557E-01    0.12971884E-01
    1    0    1    2    2   -0.15499225E+00   -0.10470297E+00    0.17477456E-02
    1    0    1    3    3    0.55844868E-01    0.17011278E+00    0.29953200E-01
    1    0    1    4    3    0.17516498E-01    0.55499423E-01   -0.23096312E-01
    1    0    1    5    3    0.50691062E-01   -0.18663312E-02    0.11634054E+00
    1    1    0    1    1   -0.80110645E-01   -0.64510810E-01    0.52709054E-01
    1    1    0    2    2   -0.99594383E-01   -0.14189217E+00    0.12241474E-01
    1    1    0    3    3   -0.82287512E-01    0.18560885E+00    0.59846502E-03
    1    1    0    4    3    0.55640198E-01    0.10112550E+00   -0.31218259E-01
    1    1    0    5    3    0.68822592E-01   -0.33554395E-01    0.18049241E+00
    1    1    1    1    1   -0.67209136E-01   -0.50602342E-01    0.83786102E-02
    1    1    1    2    2   -0.14090057E+00   -0.12932624E+00    0.16948246E-01
    1    1    1    3    3    0.27891505E+00    0.13853688E+00    0.25081681E-01
    1    1    1    4    3    0.20874475E-01    0.66756484E-01    0.50766372E-01
    1    1    1    5    3    0.56305829E-01   -0.24139154E-01   -0.18857398E+00
