    2    2    2
    5    3
Sr        Ti        O         
    0.30000000E-01    0.30000000E-01   -0.17281155E-01   -0.15062421E-02    0.88744626E-03    0.00000000E+00
    0    0    0    1    1   -0.95551368E-01   -0.48760956E-01   -0.22175823E-01
    0    0    0    2    2   -0.12774344E+00   -0.13398915E+00    0.59377914E-02
    0    0    0    3    3    0.54254619E-01    0.25035821E+00   -0.55755051E-02
    0    0    0    4    3    0.77217428E-01    0.53173538E-01   -0.29028008E-01
    0    0    0    5    3    0.50334433E-01   -0.29393870E-01    0.11938087E+00
    0    0    1    1    1   -0.58942468E-01   -0.77558063E-01    0.43118771E-01
    0    0    1    2    2   -0.14062534E+00   -0.88065894E-01   -0.22565861E-01
    0    0    1    3    3    0.23066014E+00    0.96381141E-01    0.66754316E-02
    0    0    1    4    3    0.35295271E-01    0.30723032E-01    0.49409137E-01
    0    0    1    5    3    0.59297936E-01    0.65748724E-01   -0.72436048E-01
    0    1    0    1    1   -0.43826127E-01   -0.78158580E-01   -0.22440194E-02
    0    1    0    2    2   -0.13453292E+00   -0.97782477E-01    0.68278879E-02
    0    1    0    3    3    0.34277749E+00    0.42709410E-01   -0.10540014E-02
    0    1    0    4    3   -0.15218814E-02    0.54672177E-01    0.65196297E-01
    0    1    0    5    3    0.47305083E-01    0.62291868E-01   -0.20454455E+00
    0    1    1    1    1   -0.77767735E-01   -0.50801858E-01   -0.34463846E-01
    0    1    1    2    2   -0.11349858E+00   -0.12776286E+00    0.20477991E-02
    0    1    1    3    3   -0.12867602E+00    0.17172584E+00   -0.21062419E-01
    0    1    1    4    3   -0.37049525E-01    0.96574295E-01   -0.55672639E-01
    0    1    1    5    3    0.31831952E-01    0.30871228E-01    0.22258078E+00
    1    0    0    1    1   -0.96967564E-01   -0.76034722E-01    0.14099666E-04
    1    0    0    2    2   -0.11581035E+00   -0.96476216E-01   -0.31448201E-02
    1    0    0    3    3    0.23638207E+00    0.41926235E-01   -0.84870154E-02
    1    0    0    4    3   -0.53636652E-02    0.40801139E-01    0.58827126E-01
    1    0    0    5    3    0.66358947E-01    0.10382972E-01   -0.43450371E-01
    1    0    1    1    1   -0.99258172E-01   -0.15794151E-01    0.57024328E-01
    1    0    1    2    2   -0.14560662E+00   -0.12014689E+00    0.73342832E-02
    1    0    1    3    3    0.50806688E-01    0.13568717E+00   -0.55078520E-02
    1    0    1    4    3    0.43302176E-01    0.49447137E-01   -0.24038845E-01
    1    0    1    5    3    0.67794606E-01    0.44482705E-01    0.10000099E+00
    1    1    0    1    1   -0.11771282E+00   -0.86975571E-02   -0.17521118E-01
    1    1    0    2    2   -0.13882918E+00   -0.75450833E-01   -0.24266529E-01
    1    1    0    3    3   -0.10700973E+00    0.72563004E-01    0.21971449E-02
    1    1    0    4    3    0.70417482E-01    0.45404597E-01   -0.35352851E-01
    1    1    0    5    3    0.36279395E-01   -0.76349807E-01    0.17099365E+00
    1    1    1    1    1   -0.68379449E-01   -0.10790001E+00   -0.50475617E-01
    1    1    1    2    2   -0.75830269E-01   -0.15526893E+00   -0.49614985E-01
    1    1    1    3    3    0.34547159E+00    0.58932050E-01    0.78818814E-02
    1    1    1    4    3    0.65755020E-04    0.40170852E-01    0.17943152E-01
    1    1    1    5    3    0.84650165E-01   -0.30634510E-01   -0.21070871E+00
