2	2	2
5	3
Sr	Ti	O
0.00000000E+00	0.00000000E+00	0.00000000E+00	0.00000000E+00	0.00000000E+00	0.00000000E+00
0	0	0	1	1	1.58056792E-03	1.39117402E-02	-1.39031150E-02
0	0	0	2	2	1.38814963E-02	-1.91755517E-02	-5.33018612E-03
0	0	0	3	3	2.79131687E-01	2.64579281E-01	1.46747890E-02
0	0	0	4	3	-3.93926981E-02	-4.31209033E-03	-2.86675684E-01
0	0	0	5	3	-5.33999511E-04	6.27256639E-02	-2.97660474E-01
0	0	1	1	1	-2.15732233E-02	-4.20347421E-03	-6.39306187E-03
0	0	1	2	2	-4.21498568E-03	1.59698844E-02	-2.12093794E-03
0	0	1	3	3	-2.78909354E-01	-3.15268113E-01	1.08041284E-02
0	0	1	4	3	6.61344111E-03	-4.44726258E-03	3.12840181E-01
0	0	1	5	3	2.95171876E-03	-1.87566671E-03	2.89828651E-01
0	1	0	1	1	-1.87849539E-03	8.84742371E-03	1.73540336E-02
0	1	0	2	2	-1.09306074E-02	-5.95359228E-03	5.13151931E-03
0	1	0	3	3	-2.73471358E-01	-3.06342390E-01	2.65872158E-03
0	1	0	4	3	6.44186299E-02	-3.22146420E-03	3.36403460E-01
0	1	0	5	3	2.26755589E-03	-4.16425041E-02	3.17236780E-01
0	1	1	1	1	7.82224533E-03	2.18963969E-03	-5.41015384E-03
0	1	1	2	2	-8.67204191E-03	1.17126460E-02	-4.23422868E-03
0	1	1	3	3	2.88955149E-01	2.93139896E-01	1.04826469E-02
0	1	1	4	3	4.00196051E-03	-1.20788587E-02	-2.82183778E-01
0	1	1	5	3	9.14864144E-03	6.12771252E-03	-3.05672158E-01
1	0	0	1	1	8.24263425E-03	1.05435730E-03	-1.92442718E-02
1	0	0	2	2	2.95186123E-03	9.42202179E-03	-1.58500760E-02
1	0	0	3	3	-2.78711119E-01	-3.02622770E-01	-1.70367883E-02
1	0	0	4	3	3.37601666E-02	-7.46966899E-03	3.20397280E-01
1	0	0	5	3	5.51227519E-03	-5.91722714E-02	2.85968627E-01
1	0	1	1	1	6.37378224E-03	4.60137619E-03	3.38558800E-03
1	0	1	2	2	4.54961339E-03	7.18384927E-03	-1.00832812E-02
1	0	1	3	3	2.91139937E-01	3.10088403E-01	-6.32932689E-03
1	0	1	4	3	1.69293067E-03	-2.92576500E-03	-3.31434162E-01
1	0	1	5	3	3.12418270E-03	9.56065958E-03	-3.13216888E-01
1	1	0	1	1	-5.80570611E-03	9.69154228E-03	-1.10712979E-03
1	1	0	2	2	-1.76532587E-02	7.33817389E-03	-3.71422524E-03
1	1	0	3	3	2.78558082E-01	2.95666817E-01	-6.17282944E-03
1	1	0	4	3	-6.88059119E-02	9.41743950E-03	-3.09521658E-01
1	1	0	5	3	-1.66735414E-03	4.92671535E-02	-2.91524160E-01
1	1	1	1	1	-1.54208581E-02	1.35000781E-02	-2.70989678E-03
1	1	1	2	2	-1.39714055E-02	1.22191219E-03	-4.05448508E-03
1	1	1	3	3	-2.88921908E-01	-3.17302977E-01	-4.80354933E-04
1	1	1	4	3	1.71266772E-02	-9.13355535E-03	3.13647701E-01
1	1	1	5	3	-3.27094921E-03	9.93030479E-03	3.01249206E-01
