    2    2    2
    5    3
Sr        Ti        O         
    0.00000000E+00    0.00000000E+00    0.65714149E-04   -0.50677012E-02   -0.49259778E-03    0.00000000E+00
    0    0    0    1    1    0.37567154E-01   -0.14270378E-01    0.28468391E-01
    0    0    0    2    2   -0.93836354E-02   -0.38140290E-01   -0.27592918E-01
    0    0    0    3    3    0.26923070E+00    0.26395260E+00    0.30104847E-01
    0    0    0    4    3    0.59554814E-01   -0.13918326E-02   -0.32135482E+00
    0    0    0    5    3    0.28328292E-01   -0.46982588E-01   -0.24642428E+00
    0    0    1    1    1   -0.60363899E-01    0.26166643E-01    0.36214428E-01
    0    0    1    2    2   -0.58018773E-01    0.20757737E-01   -0.54414230E-01
    0    0    1    3    3   -0.26268006E+00   -0.28801472E+00   -0.60410129E-02
    0    0    1    4    3   -0.48519584E-01    0.41701749E-01    0.27549531E+00
    0    0    1    5    3   -0.31810744E-02    0.73709462E-02    0.40449141E+00
    0    1    0    1    1    0.14112968E-01    0.13346998E-01   -0.33724335E-01
    0    1    0    2    2    0.83940674E-03   -0.16415853E-01    0.13596369E-01
    0    1    0    3    3   -0.33857692E+00   -0.30676327E+00    0.79163690E-03
    0    1    0    4    3    0.32376091E-01   -0.67975839E-02    0.31540444E+00
    0    1    0    5    3    0.36559086E-01    0.36927188E-01    0.32857987E+00
    0    1    1    1    1   -0.54330608E-01    0.57252487E-01   -0.64806063E-01
    0    1    1    2    2   -0.42535227E-01    0.37242856E-01   -0.28613732E-01
    0    1    1    3    3    0.24319393E+00    0.31256658E+00    0.13849510E-01
    0    1    1    4    3    0.11202249E+00    0.31097756E-01   -0.32561758E+00
    0    1    1    5    3    0.12333363E-01   -0.42648905E-01   -0.36011214E+00
    1    0    0    1    1   -0.22689935E-01    0.73629514E-01    0.55307217E-01
    1    0    0    2    2    0.43384871E-01    0.12915214E-01    0.80491760E-03
    1    0    0    3    3   -0.18768190E+00   -0.20969526E+00    0.11436045E-01
    1    0    0    4    3   -0.81767554E-02   -0.30436401E-01    0.28475644E+00
    1    0    0    5    3    0.41795850E-01    0.73502847E-01    0.28834321E+00
    1    0    1    1    1    0.31196777E-01    0.77433656E-02    0.59270979E-01
    1    0    1    2    2   -0.42467296E-01    0.49048633E-02   -0.37990535E-02
    1    0    1    3    3    0.27265008E+00    0.27749326E+00   -0.19247751E-01
    1    0    1    4    3   -0.20247882E-01   -0.25290748E-01   -0.25754868E+00
    1    0    1    5    3   -0.10079276E-01   -0.93819249E-01   -0.28010310E+00
    1    1    0    1    1   -0.89703955E-01   -0.51706956E-01   -0.92530768E-01
    1    1    0    2    2   -0.44597023E-01    0.20654071E-02   -0.16023031E-01
    1    1    0    3    3    0.37305125E+00    0.22416185E+00   -0.18592702E-01
    1    1    0    4    3    0.79086420E-01    0.44505078E-01   -0.27410837E+00
    1    1    0    5    3   -0.19507966E-01   -0.50766815E-01   -0.31559868E+00
    1    1    1    1    1   -0.82037541E-02   -0.28223122E-01   -0.17677762E-01
    1    1    1    2    2   -0.30705062E-01    0.30018568E-01    0.11744218E-01
    1    1    1    3    3   -0.33993710E+00   -0.31476534E+00    0.40682996E-02
    1    1    1    4    3   -0.66906455E-02   -0.43585750E-01    0.31186297E+00
    1    1    1    5    3    0.20994782E-01    0.10391549E-01    0.28934048E+00
