    2    2    2
    5    3
Sr        Ti        O         
    0.00000000E+00    0.00000000E+00   -0.74578757E-03   -0.28811587E-02    0.42764867E-02    0.00000000E+00
    0    0    0    1    1    0.44356220E-01    0.39010549E-01   -0.47935449E-01
    0    0    0    2    2    0.36846555E-01    0.25451233E-01    0.45510788E-01
    0    0    0    3    3    0.34074599E+00    0.37575291E+00    0.23755378E-01
    0    0    0    4    3   -0.12317059E+00   -0.33650136E-01   -0.23197158E+00
    0    0    0    5    3    0.26205170E-01    0.14303698E+00   -0.20189967E+00
    0    0    1    1    1   -0.57869920E-01   -0.24329779E-01   -0.78636481E-01
    0    0    1    2    2   -0.43718985E-02    0.51765260E-02    0.28466279E-01
    0    0    1    3    3   -0.24609234E+00   -0.32317994E+00    0.22061355E-01
    0    0    1    4    3    0.72004667E-02   -0.24022356E-01    0.32466470E+00
    0    0    1    5    3   -0.21855677E-01   -0.37479507E-01    0.26313546E+00
    0    1    0    1    1    0.84586091E-01    0.24318365E-01   -0.10116226E-01
    0    1    0    2    2    0.39267770E-01   -0.19090112E-01   -0.17558545E-01
    0    1    0    3    3   -0.35642491E+00   -0.32404263E+00   -0.18176072E-01
    0    1    0    4    3    0.83276327E-01   -0.13700933E-01    0.21955100E+00
    0    1    0    5    3   -0.18067572E-01   -0.13078357E+00    0.25386905E+00
    0    1    1    1    1    0.16796160E-01   -0.44583796E-01   -0.16252730E-01
    0    1    1    2    2   -0.39109644E-02   -0.30562725E-01   -0.15281992E-01
    0    1    1    3    3    0.27458748E+00    0.23476803E+00   -0.16757475E-01
    0    1    1    4    3   -0.47606706E-01    0.73442476E-02   -0.31270926E+00
    0    1    1    5    3   -0.51496368E-01   -0.35006235E-01   -0.29122573E+00
    1    0    0    1    1    0.23712692E-01    0.23917828E-01    0.17501926E-01
    1    0    0    2    2    0.16791448E-01    0.19525790E-01   -0.32265854E-01
    1    0    0    3    3   -0.23333564E+00   -0.29947564E+00   -0.17354037E-01
    1    0    0    4    3    0.57507581E-01    0.62571272E-01    0.39218813E+00
    1    0    0    5    3   -0.99072322E-03   -0.12618582E-02    0.25432934E+00
    1    0    1    1    1   -0.25435378E-02   -0.30173602E-01    0.11950803E-01
    1    0    1    2    2   -0.17075196E-01    0.24238601E-01   -0.13050697E-01
    1    0    1    3    3    0.22105960E+00    0.32888170E+00   -0.34659395E-01
    1    0    1    4    3   -0.57722046E-01   -0.24980690E-02   -0.30956515E+00
    1    0    1    5    3    0.82989218E-02    0.67360059E-01   -0.24097420E+00
    1    1    0    1    1   -0.18322101E-01   -0.10389657E+00    0.49005174E-01
    1    1    0    2    2    0.33074687E-01    0.35645256E-01   -0.21064064E-01
    1    1    0    3    3    0.30117064E+00    0.34345626E+00    0.50279921E-01
    1    1    0    4    3   -0.74408486E-01   -0.35864163E-01   -0.36440377E+00
    1    1    0    5    3    0.43551546E-02    0.14891690E+00   -0.34751939E+00
    1    1    1    1    1    0.52574536E-01    0.94415872E-02    0.63921345E-01
    1    1    1    2    2   -0.34230807E-02    0.64438083E-02    0.15541951E-01
    1    1    1    3    3   -0.32806436E+00   -0.32466774E+00   -0.25835688E-01
    1    1    1    4    3    0.43110427E-01   -0.27683001E-01    0.26130742E+00
    1    1    1    5    3   -0.48771807E-01   -0.59305551E-01    0.36817342E+00
