    2    2    2
    5    3
Sr        Ti        O         
    0.00000000E+00    0.00000000E+00   -0.49272949E-02   -0.28427337E-02    0.18785054E-02    0.00000000E+00
    0    0    0    1    1    0.31796571E-01    0.41686627E-01    0.50059968E-01
    0    0    0    2    2   -0.10653267E-01   -0.97475771E-02    0.18688684E-02
    0    0    0    3    3    0.34928196E+00    0.25830570E+00   -0.30396142E-01
    0    0    0    4    3    0.28309118E-01    0.26872193E-01   -0.29386130E+00
    0    0    0    5    3    0.44895470E-02   -0.28575969E-01   -0.35377971E+00
    0    0    1    1    1   -0.34617732E-01    0.16742939E-01   -0.39594855E-02
    0    0    1    2    2    0.17748142E-01   -0.34213266E-01   -0.77674299E-02
    0    0    1    3    3   -0.27434047E+00   -0.22862915E+00    0.39119671E-01
    0    0    1    4    3   -0.15647400E+00    0.48132472E-01    0.24656682E+00
    0    0    1    5    3    0.15355390E-01    0.11835422E+00    0.24442743E+00
    0    1    0    1    1    0.67372021E-01   -0.12846611E-01   -0.20147089E-01
    0    1    0    2    2   -0.64952369E-02    0.27457453E-01    0.94908207E-02
    0    1    0    3    3   -0.31081085E+00   -0.14991346E+00    0.24842691E-01
    0    1    0    4    3   -0.60414805E-01    0.18300381E-01    0.21832872E+00
    0    1    0    5    3   -0.27776268E-01    0.10698650E+00    0.31513151E+00
    0    1    1    1    1   -0.11125973E-02   -0.11485502E+00    0.11658257E-01
    0    1    1    2    2   -0.30481948E-01   -0.25006764E-01    0.75345354E-02
    0    1    1    3    3    0.28390429E+00    0.29681180E+00   -0.24502499E-02
    0    1    1    4    3    0.82506388E-01    0.47386356E-01   -0.18200511E+00
    0    1    1    5    3   -0.15089728E-01   -0.13355314E+00   -0.29475695E+00
    1    0    0    1    1   -0.58217951E-01   -0.65441401E-01    0.57873076E-01
    1    0    0    2    2    0.66113985E-02   -0.23472537E-01   -0.55015735E-01
    1    0    0    3    3   -0.24182890E+00   -0.48785967E+00    0.13502348E-01
    1    0    0    4    3   -0.37268052E-01    0.15671267E-02    0.39230398E+00
    1    0    0    5    3   -0.27937011E-01    0.83604416E-01    0.23085689E+00
    1    0    1    1    1    0.67597436E-01   -0.14995435E-01    0.84752250E-01
    1    0    1    2    2    0.26325993E-01   -0.22727935E-01   -0.13027999E-01
    1    0    1    3    3    0.30351708E+00    0.30213792E+00   -0.52568370E-02
    1    0    1    4    3    0.72364613E-01   -0.33303769E-01   -0.45585514E+00
    1    0    1    5    3    0.35079698E-01   -0.64615442E-01   -0.31100932E+00
    1    1    0    1    1    0.24775269E-01    0.16027749E-01   -0.53067817E-01
    1    1    0    2    2   -0.24689723E-01   -0.15102208E-01    0.18512560E-01
    1    1    0    3    3    0.33239669E+00    0.33514377E+00   -0.10252720E-01
    1    1    0    4    3    0.63385947E-01   -0.44503478E-02   -0.38292794E+00
    1    1    0    5    3   -0.49781455E-02    0.16375837E-01   -0.28418427E+00
    1    1    1    1    1    0.33550292E-02   -0.69564219E-01    0.43941314E-01
    1    1    1    2    2    0.21547679E-01    0.56600202E-02    0.59431454E-01
    1    1    1    3    3   -0.31586892E+00   -0.38747902E+00    0.16423747E-01
    1    1    1    4    3   -0.16799581E+00   -0.21898883E-01    0.36918906E+00
    1    1    1    5    3   -0.30668849E-01    0.18069836E+00    0.30390526E+00
