2	2	2
5	3
Sr	Ti	O
3.00000000E-02	3.00000000E-02	0.00000000E+00	0.00000000E+00	0.00000000E+00	0.00000000E+00
0	0	0	1	1	0.00000000E+00	0.00000000E+00	0.00000000E+00
0	0	0	2	2	0.00000000E+00	0.00000000E+00	0.00000000E+00
0	0	0	3	3	0.00000000E+00	0.00000000E+00	0.00000000E+00
0	0	0	4	3	0.00000000E+00	0.00000000E+00	0.00000000E+00
0	0	0	5	3	0.00000000E+00	0.00000000E+00	0.00000000E+00
0	0	1	1	1	0.00000000E+00	0.00000000E+00	0.00000000E+00
0	0	1	2	2	0.00000000E+00	0.00000000E+00	0.00000000E+00
0	0	1	3	3	0.00000000E+00	0.00000000E+00	0.00000000E+00
0	0	1	4	3	0.00000000E+00	0.00000000E+00	0.00000000E+00
0	0	1	5	3	0.00000000E+00	0.00000000E+00	0.00000000E+00
0	1	0	1	1	0.00000000E+00	0.00000000E+00	0.00000000E+00
0	1	0	2	2	0.00000000E+00	0.00000000E+00	0.00000000E+00
0	1	0	3	3	0.00000000E+00	0.00000000E+00	0.00000000E+00
0	1	0	4	3	0.00000000E+00	0.00000000E+00	0.00000000E+00
0	1	0	5	3	0.00000000E+00	0.00000000E+00	0.00000000E+00
0	1	1	1	1	0.00000000E+00	0.00000000E+00	0.00000000E+00
0	1	1	2	2	0.00000000E+00	0.00000000E+00	0.00000000E+00
0	1	1	3	3	0.00000000E+00	0.00000000E+00	0.00000000E+00
0	1	1	4	3	0.00000000E+00	0.00000000E+00	0.00000000E+00
0	1	1	5	3	0.00000000E+00	0.00000000E+00	0.00000000E+00
1	0	0	1	1	0.00000000E+00	0.00000000E+00	0.00000000E+00
1	0	0	2	2	0.00000000E+00	0.00000000E+00	0.00000000E+00
1	0	0	3	3	0.00000000E+00	0.00000000E+00	0.00000000E+00
1	0	0	4	3	0.00000000E+00	0.00000000E+00	0.00000000E+00
1	0	0	5	3	0.00000000E+00	0.00000000E+00	0.00000000E+00
1	0	1	1	1	0.00000000E+00	0.00000000E+00	0.00000000E+00
1	0	1	2	2	0.00000000E+00	0.00000000E+00	0.00000000E+00
1	0	1	3	3	0.00000000E+00	0.00000000E+00	0.00000000E+00
1	0	1	4	3	0.00000000E+00	0.00000000E+00	0.00000000E+00
1	0	1	5	3	0.00000000E+00	0.00000000E+00	0.00000000E+00
1	1	0	1	1	0.00000000E+00	0.00000000E+00	0.00000000E+00
1	1	0	2	2	0.00000000E+00	0.00000000E+00	0.00000000E+00
1	1	0	3	3	0.00000000E+00	0.00000000E+00	0.00000000E+00
1	1	0	4	3	0.00000000E+00	0.00000000E+00	0.00000000E+00
1	1	0	5	3	0.00000000E+00	0.00000000E+00	0.00000000E+00
1	1	1	1	1	0.00000000E+00	0.00000000E+00	0.00000000E+00
1	1	1	2	2	0.00000000E+00	0.00000000E+00	0.00000000E+00
1	1	1	3	3	0.00000000E+00	0.00000000E+00	0.00000000E+00
1	1	1	4	3	0.00000000E+00	0.00000000E+00	0.00000000E+00
1	1	1	5	3	0.00000000E+00	0.00000000E+00	0.00000000E+00
