    2    2    2
    5    3
Sr        Ti        O         
    0.30000000E-01    0.30000000E-01   -0.19845528E-01    0.30477133E-02    0.71226188E-03    0.00000000E+00
    0    0    0    1    1   -0.94675487E-01    0.54482276E-01    0.44600552E-01
    0    0    0    2    2   -0.13039895E+00    0.12656641E+00    0.12173341E-01
    0    0    0    3    3    0.34731745E+00    0.11454182E+00    0.62556625E-02
    0    0    0    4    3    0.30436412E-01   -0.52085578E-01   -0.23094161E+00
    0    0    0    5    3    0.37526696E-01    0.29262145E-02   -0.20632349E+00
    0    0    1    1    1   -0.50522286E-01    0.84912628E-01    0.25724945E-02
    0    0    1    2    2   -0.11023831E+00    0.91415962E-01    0.22682356E-01
    0    0    1    3    3   -0.16901645E+00   -0.37053494E+00    0.14143593E-01
    0    0    1    4    3    0.66313033E-01   -0.64320304E-01    0.19886555E+00
    0    0    1    5    3    0.84337800E-01   -0.55825390E-01    0.21734850E+00
    0    1    0    1    1   -0.42663331E-01    0.73480284E-01   -0.55323589E-01
    0    1    0    2    2   -0.84075620E-01    0.11540740E+00   -0.24458823E-01
    0    1    0    3    3   -0.15809519E+00   -0.36969731E+00   -0.31999331E-01
    0    1    0    4    3   -0.60358303E-02   -0.69333156E-01    0.23018235E+00
    0    1    0    5    3    0.57587449E-01    0.48895213E-01    0.26614010E+00
    0    1    1    1    1   -0.89623410E-01    0.68348725E-01   -0.49957625E-01
    0    1    1    2    2   -0.10420178E+00    0.10056302E+00   -0.26189769E-01
    0    1    1    3    3    0.41281009E+00    0.50348109E-01   -0.26851969E-01
    0    1    1    4    3    0.30892430E-01   -0.75664495E-01   -0.18652032E+00
    0    1    1    5    3    0.75795927E-01    0.36885825E-01   -0.25906747E+00
    1    0    0    1    1   -0.64840398E-01    0.56918666E-01    0.16566747E-01
    1    0    0    2    2   -0.12085842E+00    0.12329271E+00    0.11873854E-01
    1    0    0    3    3   -0.55658279E-01   -0.38384484E+00   -0.56609206E-02
    1    0    0    4    3    0.44484627E-01   -0.55755954E-02    0.28064502E+00
    1    0    0    5    3    0.50465973E-01   -0.25815537E-01    0.22007963E+00
    1    0    1    1    1   -0.90394724E-01    0.53794817E-01    0.66323328E-01
    1    0    1    2    2   -0.11283350E+00    0.99543990E-01    0.28709993E-01
    1    0    1    3    3    0.34305806E+00    0.15589170E+00    0.30591938E-01
    1    0    1    4    3   -0.34111135E-01   -0.71811475E-01   -0.26025977E+00
    1    0    1    5    3    0.68728808E-01   -0.50008500E-01   -0.19355948E+00
    1    1    0    1    1   -0.11936412E+00    0.98544494E-02   -0.28318968E-01
    1    1    0    2    2   -0.90921932E-01    0.10670957E+00    0.16200579E-01
    1    1    0    3    3    0.38289527E+00    0.19379805E+00   -0.37394211E-01
    1    1    0    4    3    0.10084168E-01   -0.37038437E-01   -0.25565287E+00
    1    1    0    5    3    0.59878127E-01    0.68396029E-02   -0.27392829E+00
    1    1    1    1    1   -0.78399244E-01    0.98834928E-01    0.54597253E-01
    1    1    1    2    2   -0.14819788E+00    0.13297536E+00   -0.28992739E-01
    1    1    1    3    3   -0.14059767E+00   -0.39534464E+00   -0.21852876E-01
    1    1    1    4    3   -0.72755254E-01   -0.46298716E-01    0.25785891E+00
    1    1    1    5    3    0.65866868E-01    0.65971209E-01    0.20484236E+00
