    2    2    2
    5    3
Sr        Ti        O         
    0.30000000E-01    0.30000000E-01   -0.12531638E-01    0.14469437E-02   -0.27531491E-03    0.00000000E+00
    0    0    0    1    1   -0.35972242E-01    0.48820604E-02   -0.59477543E-01
    0    0    0    2    2   -0.20528628E-01   -0.52480636E-01   -0.34679889E-01
    0    0    0    3    3    0.65655793E-01    0.68673835E-01   -0.24473299E-01
    0    0    0    4    3   -0.29535601E-01    0.38090955E-01   -0.51062653E-01
    0    0    0    5    3    0.21421379E-01    0.15238471E-01    0.49429327E-02
    0    0    1    1    1   -0.48587215E-01   -0.25786112E-01   -0.71112647E-02
    0    0    1    2    2   -0.87302525E-02   -0.44279488E-02   -0.80643498E-01
    0    0    1    3    3    0.50124215E-01    0.19251675E-01   -0.15405724E-01
    0    0    1    4    3   -0.39670517E-01    0.29743264E-01    0.24851314E-01
    0    0    1    5    3    0.13292106E-01    0.26217652E-01    0.80780734E-02
    0    1    0    1    1   -0.55962110E-01   -0.14283480E-01   -0.25521471E-01
    0    1    0    2    2   -0.13049823E+00   -0.15984376E-02   -0.52981726E-02
    0    1    0    3    3   -0.36119899E-01   -0.15478910E-01    0.37580580E-02
    0    1    0    4    3    0.45638392E-01    0.89504976E-02    0.54435936E-01
    0    1    0    5    3    0.58169131E-01   -0.54984110E-01    0.75037367E-01
    0    1    1    1    1   -0.24055935E-02    0.32442672E-01   -0.31021902E-03
    0    1    1    2    2   -0.33068050E-02    0.19787068E-01    0.14457280E-02
    0    1    1    3    3    0.13359924E+00    0.55015421E-01    0.15536491E-01
    0    1    1    4    3    0.80243867E-01    0.13360461E-01   -0.11538827E-01
    0    1    1    5    3   -0.17785801E-02    0.94026106E-02   -0.81821716E-01
    1    0    0    1    1   -0.17169349E-01    0.60731959E-01    0.52001605E-01
    1    0    0    2    2   -0.35195948E-01    0.72580754E-01    0.37894904E-01
    1    0    0    3    3   -0.13276951E-01   -0.13969043E+00    0.19781836E-01
    1    0    0    4    3    0.89594577E-01   -0.47722763E-01    0.12195814E+00
    1    0    0    5    3   -0.25617815E-02   -0.14262310E-01   -0.89331372E-02
    1    0    1    1    1    0.50532795E-01   -0.16315406E-01    0.34798952E-01
    1    0    1    2    2   -0.44928298E-01    0.75217913E-01    0.17344279E-01
    1    0    1    3    3   -0.19030570E-01    0.47688037E-01    0.49005251E-01
    1    0    1    4    3    0.55841388E-01   -0.38186176E-01   -0.72115440E-01
    1    0    1    5    3   -0.10522474E-01   -0.41872004E-01   -0.20849271E-01
    1    1    0    1    1   -0.98815372E-01   -0.15951610E-01    0.34951299E-01
    1    1    0    2    2   -0.10569535E+00    0.94345118E-02   -0.25651492E-01
    1    1    0    3    3    0.10996081E+00   -0.35413566E-02   -0.13538274E-01
    1    1    0    4    3    0.17933421E-02   -0.26661335E-01   -0.81925092E-01
    1    1    0    5    3    0.58556396E-01    0.53431879E-01   -0.74072805E-01
    1    1    1    1    1   -0.28019625E-01    0.41326702E-01   -0.82232781E-02
    1    1    1    2    2   -0.77994581E-02    0.36118335E-01   -0.12076284E-01
    1    1    1    3    3   -0.12839521E-01   -0.16927901E+00   -0.11860721E-01
    1    1    1    4    3   -0.37988161E-01   -0.80905654E-01    0.12598414E+00
    1    1    1    5    3    0.12515102E-01    0.25840964E-01    0.44783759E-01
