    2    2    2
    5    3
Sr        Ti        O         
   -0.30000000E-01   -0.30000000E-01    0.30059923E-02   -0.48771252E-02   -0.11937397E-02    0.00000000E+00
    0    0    0    1    1   -0.11658551E-01    0.62646944E-01   -0.35514298E-01
    0    0    0    2    2   -0.42970062E-02    0.58793533E-02   -0.29543917E-02
    0    0    0    3    3    0.29252282E+00    0.27034440E+00    0.83372882E-02
    0    0    0    4    3    0.55715701E-01    0.10994981E-02   -0.36297881E+00
    0    0    0    5    3   -0.20102801E-02   -0.97738914E-01   -0.23642154E+00
    0    0    1    1    1   -0.42830520E-02   -0.30020196E-01   -0.44145238E-02
    0    0    1    2    2    0.79144966E-02    0.11431942E-01   -0.41102119E-01
    0    0    1    3    3   -0.31893831E+00   -0.23402090E+00    0.46777025E-02
    0    0    1    4    3   -0.38202783E-01    0.50422179E-02    0.36143414E+00
    0    0    1    5    3   -0.22118199E-01    0.93318822E-01    0.32092156E+00
    0    1    0    1    1    0.37543559E-01   -0.26083112E-01   -0.36417439E-01
    0    1    0    2    2    0.23479923E-01   -0.73109432E-02   -0.39162741E-01
    0    1    0    3    3   -0.29632745E+00   -0.37433452E+00   -0.35445601E-01
    0    1    0    4    3   -0.66809026E-01    0.38480736E-02    0.31195834E+00
    0    1    0    5    3    0.96787256E-02    0.59274361E-01    0.38404277E+00
    0    1    1    1    1    0.15083884E-01    0.94426237E-02   -0.42455161E-01
    0    1    1    2    2   -0.10405307E-01    0.30990900E-03   -0.19134301E-01
    0    1    1    3    3    0.31637851E+00    0.30802773E+00   -0.40262852E-01
    0    1    1    4    3    0.75051674E-01    0.17677381E-01   -0.29072019E+00
    0    1    1    5    3    0.51475558E-02   -0.75294930E-01   -0.34524540E+00
    1    0    0    1    1   -0.91563926E-01   -0.92340114E-02    0.14715689E-01
    1    0    0    2    2   -0.14330703E-01    0.22391976E-01    0.28917521E-02
    1    0    0    3    3   -0.30230652E+00   -0.29266803E+00    0.41623441E-01
    1    0    0    4    3   -0.48973135E-01    0.10918923E-01    0.36903171E+00
    1    0    0    5    3   -0.77511373E-02    0.30977166E-01    0.35190953E+00
    1    0    1    1    1    0.19248669E-01    0.29055213E-02    0.14940441E-02
    1    0    1    2    2    0.28494283E-02   -0.67574231E-02   -0.13696242E-01
    1    0    1    3    3    0.28614796E+00    0.30276332E+00    0.26826777E-01
    1    0    1    4    3    0.81783569E-01   -0.23697033E-02   -0.29065109E+00
    1    0    1    5    3    0.23498063E-01   -0.81631268E-01   -0.35558429E+00
    1    1    0    1    1   -0.12433559E-01   -0.70504024E-02   -0.32983061E-01
    1    1    0    2    2    0.28501259E-01    0.19919489E-01   -0.28503136E-01
    1    1    0    3    3    0.25568559E+00    0.30901134E+00   -0.94945601E-04
    1    1    0    4    3    0.84024414E-01    0.93580855E-02   -0.29561457E+00
    1    1    0    5    3    0.14828859E-01   -0.68194383E-01   -0.33968679E+00
    1    1    1    1    1   -0.12276098E-01    0.33118919E-01    0.21021417E-01
    1    1    1    2    2   -0.51214422E-02   -0.14634714E-01   -0.55797935E-02
    1    1    1    3    3   -0.28077487E+00   -0.28573588E+00   -0.12599452E-01
    1    1    1    4    3   -0.84949686E-01   -0.28824017E-01    0.36517419E+00
    1    1    1    5    3    0.44638086E-03    0.52195348E-01    0.32116241E+00
