    2    2    2
    5    3
Sr        Ti        O         
   -0.30000000E-01   -0.30000000E-01    0.64724691E-02   -0.17150278E-02    0.18115903E-03    0.00000000E+00
    0    0    0    1    1    0.47328336E-01    0.19685391E-01   -0.33111320E-01
    0    0    0    2    2    0.49171508E-02   -0.32674868E-01    0.96581196E-02
    0    0    0    3    3    0.30408526E+00    0.33112714E+00   -0.18263147E-01
    0    0    0    4    3    0.17722599E-01   -0.13746940E-01   -0.35695464E+00
    0    0    0    5    3   -0.22316026E-01   -0.25724458E-01   -0.36586112E+00
    0    0    1    1    1   -0.33904929E-01   -0.58858178E-01   -0.63769871E-01
    0    0    1    2    2    0.14663540E-01   -0.26238543E-02    0.22836505E-01
    0    0    1    3    3   -0.33544045E+00   -0.33089722E+00    0.45585543E-02
    0    0    1    4    3   -0.17873582E+00    0.49790268E-02    0.37811079E+00
    0    0    1    5    3   -0.23867479E-02    0.21203077E+00    0.34611340E+00
    0    1    0    1    1   -0.11189879E-01   -0.14154851E-01    0.72767235E-02
    0    1    0    2    2    0.13575259E-01   -0.49580567E-01    0.34249997E-01
    0    1    0    3    3   -0.25433694E+00   -0.34463452E+00    0.34501955E-01
    0    1    0    4    3   -0.76061392E-01   -0.19199356E-01    0.39011367E+00
    0    1    0    5    3    0.19312064E-01    0.11712832E+00    0.39577608E+00
    0    1    1    1    1    0.79443226E-01   -0.65144144E-01    0.24441086E-01
    0    1    1    2    2   -0.67840188E-02    0.88677568E-03   -0.34763669E-01
    0    1    1    3    3    0.31303776E+00    0.32710748E+00    0.27839323E-01
    0    1    1    4    3    0.19103278E+00    0.28096318E-01   -0.43833217E+00
    0    1    1    5    3    0.72517194E-02   -0.20187572E+00   -0.25120011E+00
    1    0    0    1    1   -0.24003853E-01   -0.58678391E-01   -0.31088009E-01
    1    0    0    2    2   -0.15223645E-01   -0.15152952E-01   -0.15937496E-02
    1    0    0    3    3   -0.34562750E+00   -0.25267791E+00   -0.34356766E-01
    1    0    0    4    3   -0.11261134E+00   -0.87942363E-03    0.31963890E+00
    1    0    0    5    3   -0.17800722E-02    0.64373967E-01    0.36962997E+00
    1    0    1    1    1    0.87777601E-01    0.10601689E-01    0.35817613E-02
    1    0    1    2    2   -0.12347090E-01    0.11148882E-01    0.19452098E-01
    1    0    1    3    3    0.29503127E+00    0.29379477E+00   -0.18028288E-01
    1    0    1    4    3    0.12783512E+00    0.19085177E-01   -0.37912664E+00
    1    0    1    5    3   -0.16403511E-01   -0.13593745E+00   -0.36034317E+00
    1    1    0    1    1    0.11965435E-01    0.59527629E-01    0.22202452E-01
    1    1    0    2    2    0.21862256E-01   -0.72512499E-02    0.11576313E-01
    1    1    0    3    3    0.34283535E+00    0.29882394E+00   -0.20402418E-01
    1    1    0    4    3   -0.13840230E-01    0.32765330E-02   -0.33367644E+00
    1    1    0    5    3    0.80384809E-02   -0.71424111E-01   -0.27928979E+00
    1    1    1    1    1   -0.46235661E-02   -0.32433026E-01   -0.15798435E-01
    1    1    1    2    2    0.27028721E-01    0.94120938E-02   -0.23641820E-01
    1    1    1    3    3   -0.30249632E+00   -0.27622336E+00   -0.22251805E-02
    1    1    1    4    3   -0.17128289E+00    0.16630272E-01    0.27573026E+00
    1    1    1    5    3    0.66522924E-02    0.18205640E+00    0.36453879E+00
