    2    2    2
    5    3
Sr        Ti        O         
   -0.30000000E-01   -0.30000000E-01    0.17514711E-01   -0.63753717E-02    0.37024407E-02    0.00000000E+00
    0    0    0    1    1    0.59060453E-01   -0.72570243E-02    0.28128091E-01
    0    0    0    2    2    0.17733889E-01    0.64599508E-02   -0.38023898E-01
    0    0    0    3    3    0.20716186E+00    0.24325731E+00   -0.73921285E-02
    0    0    0    4    3    0.35850560E+00    0.14101032E-01   -0.23968498E+00
    0    0    0    5    3    0.23463741E-01   -0.40262463E+00   -0.26231378E+00
    0    0    1    1    1   -0.61610418E-01   -0.10002625E-01   -0.40904630E-02
    0    0    1    2    2   -0.17927538E-01   -0.34514720E-01   -0.58013037E-02
    0    0    1    3    3   -0.26646458E+00   -0.24635874E+00    0.13783201E-01
    0    0    1    4    3   -0.49126503E+00   -0.65645228E-02    0.23402806E+00
    0    0    1    5    3   -0.13582955E-01    0.46739928E+00    0.27047454E+00
    0    1    0    1    1   -0.56776468E-01   -0.32878254E-01   -0.63571676E-01
    0    1    0    2    2    0.29497303E-01    0.33597482E-01   -0.10679281E-01
    0    1    0    3    3   -0.24555290E+00   -0.24368640E+00    0.12751527E-01
    0    1    0    4    3   -0.26775731E+00   -0.39170769E-01    0.25590788E+00
    0    1    0    5    3    0.15161885E-01    0.27762431E+00    0.29150811E+00
    0    1    1    1    1    0.28187623E-01    0.45740855E-01   -0.16407866E-01
    0    1    1    2    2    0.62717891E-02   -0.13461210E-01   -0.17459115E-01
    0    1    1    3    3    0.25787293E+00    0.26630202E+00    0.35444812E-01
    0    1    1    4    3    0.42983519E+00    0.33773518E-02   -0.20208661E+00
    0    1    1    5    3    0.12820145E-01   -0.46243738E+00   -0.22008292E+00
    1    0    0    1    1    0.26152549E-03   -0.61968459E-02   -0.78658380E-01
    1    0    0    2    2    0.21110628E-01    0.87016153E-03   -0.54345171E-01
    1    0    0    3    3   -0.24783952E+00   -0.25204954E+00   -0.23679597E-01
    1    0    0    4    3   -0.33221151E+00   -0.26864141E-01    0.23004064E+00
    1    0    0    5    3    0.18562144E-01    0.26170502E+00    0.23186429E+00
    1    0    1    1    1    0.25622729E-01    0.90138364E-01    0.74474790E-01
    1    0    1    2    2   -0.38335022E-03    0.26154330E-01   -0.16610679E-01
    1    0    1    3    3    0.23912441E+00    0.27735825E+00    0.42641997E-02
    1    0    1    4    3    0.47255579E+00    0.20571668E-01   -0.23056296E+00
    1    0    1    5    3   -0.15069266E-01   -0.47707146E+00   -0.16014124E+00
    1    1    0    1    1    0.11715645E-01   -0.61217839E-01    0.42194799E-02
    1    1    0    2    2    0.57739208E-02    0.91360120E-02    0.11610991E-01
    1    1    0    3    3    0.22673704E+00    0.26056369E+00    0.61936836E-02
    1    1    0    4    3    0.29003287E+00   -0.16544304E-01   -0.32298310E+00
    1    1    0    5    3   -0.19200414E-01   -0.32604330E+00   -0.16938909E+00
    1    1    1    1    1   -0.51156720E-01    0.46732572E-01    0.45862035E-02
    1    1    1    2    2    0.29987188E-02    0.18419906E-01    0.12008055E-01
    1    1    1    3    3   -0.28671861E+00   -0.21548891E+00    0.34986497E-02
    1    1    1    4    3   -0.38439250E+00    0.14778215E-01    0.24110045E+00
    1    1    1    5    3   -0.21587529E-02    0.49614484E+00    0.17807658E+00
