    2    2    2
    5    3
Sr        Ti        O         
   -0.30000000E-01   -0.30000000E-01    0.88490292E-02   -0.42927067E-03   -0.42760965E-03    0.00000000E+00
    0    0    0    1    1    0.10911864E-01    0.23832294E-01    0.23976944E-01
    0    0    0    2    2    0.24784386E-02   -0.19099252E-01   -0.16532057E-02
    0    0    0    3    3    0.30953199E+00    0.25728732E+00    0.40037373E-02
    0    0    0    4    3    0.18517100E-02    0.23975592E-02   -0.35268696E+00
    0    0    0    5    3   -0.12101357E-01   -0.32600937E-01   -0.35522290E+00
    0    0    1    1    1   -0.26228810E-01    0.50176365E-02   -0.18256973E-01
    0    0    1    2    2    0.82752009E-02   -0.82120564E-02    0.47692244E-02
    0    0    1    3    3   -0.27622927E+00   -0.38323171E+00    0.37017449E-01
    0    0    1    4    3   -0.20458191E+00    0.26230628E-01    0.38122890E+00
    0    0    1    5    3    0.14266414E-01    0.25927572E+00    0.21324217E+00
    0    1    0    1    1   -0.77639571E-02   -0.10442935E-01   -0.38155278E-01
    0    1    0    2    2    0.10773484E-01    0.60010266E-02    0.31138675E-02
    0    1    0    3    3   -0.30379713E+00   -0.27752034E+00    0.19761172E-01
    0    1    0    4    3   -0.11937218E+00   -0.15507392E-01    0.31380607E+00
    0    1    0    5    3    0.75289143E-02    0.60230268E-01    0.32501856E+00
    0    1    1    1    1    0.21890539E-01   -0.44998052E-01    0.32816312E-01
    0    1    1    2    2    0.75360180E-02    0.62666824E-02    0.16921227E-01
    0    1    1    3    3    0.26037583E+00    0.34890358E+00    0.24005760E-01
    0    1    1    4    3    0.21308080E+00    0.12287467E-01   -0.30751469E+00
    0    1    1    5    3   -0.13605274E-01   -0.27086906E+00   -0.30334891E+00
    1    0    0    1    1   -0.18187243E-01   -0.67182812E-01   -0.11738141E-01
    1    0    0    2    2   -0.11725603E-01    0.66992907E-01   -0.19796813E-01
    1    0    0    3    3   -0.28009175E+00   -0.27535320E+00   -0.19869865E-01
    1    0    0    4    3   -0.69952878E-01    0.10494026E-01    0.31096385E+00
    1    0    0    5    3   -0.16636019E-01    0.37987396E-01    0.34258549E+00
    1    0    1    1    1   -0.41454099E-02    0.21626846E-01   -0.11895567E-02
    1    0    1    2    2    0.22165945E-01   -0.71315313E-02   -0.17621050E-01
    1    0    1    3    3    0.29271271E+00    0.30884194E+00   -0.25706319E-01
    1    0    1    4    3    0.22179445E+00   -0.90647957E-02   -0.29225159E+00
    1    0    1    5    3    0.20853126E-01   -0.20576130E+00   -0.35741218E+00
    1    1    0    1    1    0.10466557E-01    0.11273912E-03    0.38814662E-02
    1    1    0    2    2    0.19472463E-01    0.46403583E-01    0.17837104E-01
    1    1    0    3    3    0.29681742E+00    0.26034091E+00   -0.18720531E-01
    1    1    0    4    3    0.49756550E-01    0.26063317E-01   -0.34362875E+00
    1    1    0    5    3    0.97399576E-02   -0.98176277E-01   -0.27229117E+00
    1    1    1    1    1    0.50192286E-01   -0.35353731E-01   -0.12315023E-01
    1    1    1    2    2    0.12741873E-01    0.20003478E-01    0.46319862E-01
    1    1    1    3    3   -0.26721787E+00   -0.29622071E+00    0.22448768E-01
    1    1    1    4    3   -0.23509729E+00   -0.57829348E-02    0.29997397E+00
    1    1    1    5    3   -0.84805697E-02    0.25591170E+00    0.32568799E+00
