    2    2    2
    5    3
Sr        Ti        O         
   -0.30000000E-01   -0.30000000E-01    0.13131513E-01    0.26791556E-02   -0.46906095E-02    0.00000000E+00
    0    0    0    1    1    0.78221533E-02   -0.55456983E-02    0.13440710E-02
    0    0    0    2    2   -0.36786354E-01   -0.60294567E-02   -0.23023194E-01
    0    0    0    3    3    0.33054157E+00    0.29650235E+00   -0.25945588E-01
    0    0    0    4    3    0.11827215E+00   -0.34468448E-01   -0.34552792E+00
    0    0    0    5    3   -0.18333904E-01   -0.24486921E+00   -0.33410944E+00
    0    0    1    1    1   -0.67511870E-03   -0.11273254E-01    0.19856919E-01
    0    0    1    2    2   -0.29226066E-01   -0.12031058E-01    0.33185476E-01
    0    0    1    3    3   -0.27500981E+00   -0.28592489E+00   -0.26497074E-01
    0    0    1    4    3   -0.32680928E+00   -0.16114343E-02    0.25806463E+00
    0    0    1    5    3   -0.61671987E-02    0.32196229E+00    0.39882780E+00
    0    1    0    1    1   -0.67453461E-01   -0.69693117E-02   -0.37281309E-01
    0    1    0    2    2    0.21456548E-01   -0.46154472E-02   -0.76195988E-02
    0    1    0    3    3   -0.23578554E+00   -0.27682465E+00   -0.96097657E-02
    0    1    0    4    3   -0.18816395E+00   -0.20326216E-01    0.29796699E+00
    0    1    0    5    3   -0.29945051E-01    0.17305590E+00    0.33088232E+00
    0    1    1    1    1    0.45610288E-01   -0.89993313E-04   -0.76617238E-02
    0    1    1    2    2    0.35817745E-02   -0.17564008E-01   -0.51990324E-02
    0    1    1    3    3    0.24138655E+00    0.31239569E+00    0.23094246E-07
    0    1    1    4    3    0.31686019E+00   -0.32768202E-01   -0.33435746E+00
    0    1    1    5    3    0.13116398E-01   -0.36173920E+00   -0.20111603E+00
    1    0    0    1    1   -0.23367972E-01    0.21928871E-01    0.71595339E-02
    1    0    0    2    2   -0.58907689E-02    0.14944270E-01   -0.19827998E-01
    1    0    0    3    3   -0.29504891E+00   -0.23498643E+00    0.16941464E-01
    1    0    0    4    3   -0.24735753E+00   -0.21618135E-01    0.23771602E+00
    1    0    0    5    3    0.50766775E-03    0.18536829E+00    0.32779404E+00
    1    0    1    1    1    0.44904313E-01    0.47386542E-01   -0.70988292E-01
    1    0    1    2    2   -0.61647655E-02    0.35329671E-01    0.27257905E-02
    1    0    1    3    3    0.34434517E+00    0.21711706E+00    0.51060372E-01
    1    0    1    4    3    0.35999838E+00    0.11842874E-02   -0.27125618E+00
    1    0    1    5    3    0.26629029E-01   -0.35648032E+00   -0.25985668E+00
    1    1    0    1    1    0.37060734E-01    0.15484807E-01   -0.15894367E-01
    1    1    0    2    2    0.34655525E-01    0.22722087E-02   -0.58591270E-02
    1    1    0    3    3    0.26198646E+00    0.27451954E+00   -0.75371872E-02
    1    1    0    4    3    0.16406015E+00   -0.81887889E-02   -0.24885220E+00
    1    1    0    5    3   -0.15095033E-01   -0.13165493E+00   -0.27787211E+00
    1    1    1    1    1    0.18303561E-02   -0.14815202E-01    0.23542776E-01
    1    1    1    2    2   -0.17519392E-01    0.62499993E-01   -0.23287750E-01
    1    1    1    3    3   -0.22490946E+00   -0.26236435E+00    0.28189528E-01
    1    1    1    4    3   -0.33276946E+00    0.18798763E-01    0.27561509E+00
    1    1    1    5    3    0.78536239E-02    0.35200811E+00    0.24830717E+00
