    2    2    2
    5    3
Sr        Ti        O         
   -0.30000000E-01   -0.30000000E-01    0.50185296E-02   -0.26328458E-02    0.53720092E-03    0.00000000E+00
    0    0    0    1    1    0.25225774E-01    0.44922726E-01   -0.30860205E-01
    0    0    0    2    2    0.35783195E-01   -0.16621866E-01    0.26581937E-01
    0    0    0    3    3    0.31595752E+00    0.31628493E+00    0.92775782E-02
    0    0    0    4    3    0.67083226E-01    0.16781675E-01   -0.37980599E+00
    0    0    0    5    3   -0.19506263E-01   -0.80609139E-01   -0.39244313E+00
    0    0    1    1    1   -0.28045684E-01    0.11345116E-01    0.13760928E-01
    0    0    1    2    2   -0.10904367E-01    0.30642010E-01    0.27345789E-01
    0    0    1    3    3   -0.32952559E+00   -0.35462177E+00   -0.77082925E-02
    0    0    1    4    3   -0.13584620E+00   -0.22554061E-01    0.37884280E+00
    0    0    1    5    3   -0.23574334E-02    0.99730733E-01    0.35515539E+00
    0    1    0    1    1   -0.46877487E-01   -0.12708522E-01    0.36229661E-01
    0    1    0    2    2    0.24854769E-01   -0.49840759E-02    0.59285230E-02
    0    1    0    3    3   -0.29038834E+00   -0.29849142E+00   -0.38977646E-02
    0    1    0    4    3   -0.62556338E-01   -0.14019408E-01    0.32601139E+00
    0    1    0    5    3    0.15988809E-01    0.13101223E-01    0.37754366E+00
    0    1    1    1    1    0.58486669E-01    0.95574758E-02    0.23604935E-01
    0    1    1    2    2    0.64372481E-02    0.10994197E-01    0.20712532E-02
    0    1    1    3    3    0.30528945E+00    0.29498838E+00   -0.27301021E-02
    0    1    1    4    3    0.11505534E+00   -0.14496240E-01   -0.36605430E+00
    0    1    1    5    3   -0.85126135E-02   -0.14698927E+00   -0.37759503E+00
    1    0    0    1    1   -0.28543261E-01    0.20931077E-01   -0.29209678E-01
    1    0    0    2    2    0.95446545E-02    0.22155763E-01   -0.27859594E-01
    1    0    0    3    3   -0.35458622E+00   -0.26516543E+00   -0.17057064E-01
    1    0    0    4    3   -0.95050280E-01    0.24292592E-01    0.32754974E+00
    1    0    0    5    3    0.11827228E-01    0.33448649E-01    0.40504027E+00
    1    0    1    1    1    0.26911672E-01    0.28048517E-01    0.19947704E-01
    1    0    1    2    2    0.14535321E-01    0.59621985E-01   -0.39605198E-01
    1    0    1    3    3    0.35575972E+00    0.33230747E+00   -0.14546358E-02
    1    0    1    4    3    0.11835988E+00    0.13933056E-01   -0.32642419E+00
    1    0    1    5    3    0.14880337E-01   -0.19477185E+00   -0.33080062E+00
    1    1    0    1    1    0.18213420E-01   -0.95603120E-02   -0.45984469E-02
    1    1    0    2    2   -0.53052733E-02    0.56109399E-01    0.24100072E-01
    1    1    0    3    3    0.27631244E+00    0.30966100E+00    0.22086946E-01
    1    1    0    4    3    0.25783438E-01    0.22536650E-01   -0.33864751E+00
    1    1    0    5    3    0.33434021E-02   -0.63444970E-01   -0.36562401E+00
    1    1    1    1    1   -0.32500685E-01   -0.55914497E-01   -0.14244795E-01
    1    1    1    2    2   -0.18957421E-02    0.44263514E-01    0.19478181E-02
    1    1    1    3    3   -0.27089386E+00   -0.31769213E+00   -0.19827469E-01
    1    1    1    4    3   -0.12572663E+00    0.81462864E-03    0.35400574E+00
    1    1    1    5    3    0.33887612E-02    0.56172194E-01    0.33941589E+00
