    2    2    2
    5    3
Sr        Ti        O         
   -0.30000000E-01   -0.30000000E-01    0.15284753E-01   -0.22871506E-03   -0.24614561E-02    0.00000000E+00
    0    0    0    1    1    0.36066837E-01    0.10669302E-01   -0.40199411E-01
    0    0    0    2    2   -0.50005970E-01   -0.13213183E-01   -0.22023563E-01
    0    0    0    3    3    0.30051379E+00    0.25439463E+00   -0.10992338E-01
    0    0    0    4    3    0.10004498E+00   -0.22635017E-01   -0.30770476E+00
    0    0    0    5    3   -0.47697924E-01   -0.15095591E+00   -0.37824968E+00
    0    0    1    1    1   -0.28324046E-01   -0.65863508E-01    0.61944600E-01
    0    0    1    2    2   -0.57702343E-02   -0.56256336E-02    0.10437329E-01
    0    0    1    3    3   -0.35793564E+00   -0.24841323E+00   -0.41856629E-01
    0    0    1    4    3   -0.25210222E+00   -0.59503267E-02    0.31489254E+00
    0    0    1    5    3   -0.75757445E-02    0.24494050E+00    0.39408501E+00
    0    1    0    1    1   -0.10562516E-01    0.25264869E-01    0.19372792E-01
    0    1    0    2    2    0.37227700E-01   -0.26316006E-02   -0.16969650E-01
    0    1    0    3    3   -0.29728700E+00   -0.28258417E+00    0.38797895E-02
    0    1    0    4    3   -0.13105685E+00   -0.10171231E-01    0.31461794E+00
    0    1    0    5    3   -0.97481908E-02    0.43205791E-01    0.31462268E+00
    0    1    1    1    1    0.97430144E-01    0.30953806E-01   -0.16603711E-01
    0    1    1    2    2    0.30261989E-02    0.22829623E-02    0.33715913E-01
    0    1    1    3    3    0.32745609E+00    0.26566984E+00    0.25027103E-02
    0    1    1    4    3    0.31013796E+00   -0.14786893E-01   -0.29343247E+00
    0    1    1    5    3    0.13507679E-01   -0.31320001E+00   -0.29240844E+00
    1    0    0    1    1    0.30723707E-01   -0.21237475E-02   -0.69829126E-02
    1    0    0    2    2   -0.40356035E-01    0.54721143E-02   -0.35610749E-01
    1    0    0    3    3   -0.30788582E+00   -0.21575538E+00   -0.38240106E-02
    1    0    0    4    3   -0.16679114E+00   -0.10842481E-01    0.34139228E+00
    1    0    0    5    3   -0.43215149E-01    0.16823308E+00    0.36637173E+00
    1    0    1    1    1    0.36708086E-01    0.43106363E-01   -0.61483708E-01
    1    0    1    2    2   -0.32568853E-02    0.39946587E-01   -0.24790632E-01
    1    0    1    3    3    0.30337983E+00    0.22292578E+00    0.27579229E-01
    1    0    1    4    3    0.28468828E+00   -0.20027618E-02   -0.29764954E+00
    1    0    1    5    3   -0.81455941E-02   -0.24392009E+00   -0.34348615E+00
    1    1    0    1    1    0.43413507E-02    0.72701531E-01   -0.16632211E-01
    1    1    0    2    2    0.59854025E-01    0.62772242E-02   -0.61697966E-02
    1    1    0    3    3    0.26747605E+00    0.23594037E+00   -0.92714017E-02
    1    1    0    4    3    0.11771063E+00    0.13418708E-01   -0.25358257E+00
    1    1    0    5    3    0.32027498E-01   -0.81680146E-01   -0.34014090E+00
    1    1    1    1    1   -0.43217837E-01   -0.66396281E-01   -0.10558418E-01
    1    1    1    2    2   -0.45444591E-02    0.11737700E-01   -0.39014916E-01
    1    1    1    3    3   -0.29712638E+00   -0.24793506E+00    0.25316330E-01
    1    1    1    4    3   -0.25668767E+00    0.29383372E-03    0.28214640E+00
    1    1    1    5    3    0.69724765E-02    0.30925165E+00    0.35676129E+00
