    2    2    2
    5    3
Sr        Ti        O         
   -0.30000000E-01   -0.30000000E-01    0.17545807E-01   -0.69503487E-03    0.14009633E-02    0.00000000E+00
    0    0    0    1    1    0.79349384E-02   -0.28821580E-01   -0.10026672E-02
    0    0    0    2    2    0.17611169E-01   -0.33129092E-01   -0.17821086E-03
    0    0    0    3    3    0.17501047E+00    0.23596465E+00   -0.28743892E-01
    0    0    0    4    3    0.36972174E+00   -0.40895230E-01   -0.21641986E+00
    0    0    0    5    3    0.23407429E-01   -0.40665277E+00   -0.21406491E+00
    0    0    1    1    1   -0.18341937E-01   -0.56594515E-02    0.20207646E-02
    0    0    1    2    2   -0.30406683E-02   -0.15224476E-01   -0.21665499E-01
    0    0    1    3    3   -0.12762915E+00   -0.24353919E+00    0.34115249E-01
    0    0    1    4    3   -0.49402836E+00    0.22708783E-01    0.24145763E+00
    0    0    1    5    3   -0.34947751E-01    0.52699038E+00    0.15276449E+00
    0    1    0    1    1    0.86563879E-03    0.25800913E-01   -0.70808073E-01
    0    1    0    2    2    0.45112718E-02   -0.21630904E-01    0.44142821E-01
    0    1    0    3    3   -0.18441481E+00   -0.22716204E+00    0.17016343E-01
    0    1    0    4    3   -0.38800236E+00   -0.22317557E-01    0.22173305E+00
    0    1    0    5    3   -0.12750170E-01    0.42402860E+00    0.18885412E+00
    0    1    1    1    1    0.43893835E-01   -0.17740513E-01   -0.38118531E-01
    0    1    1    2    2    0.18190559E-01    0.22600342E-01    0.19732261E-02
    0    1    1    3    3    0.15614750E+00    0.22169714E+00    0.44616773E-01
    0    1    1    4    3    0.48198209E+00    0.97930290E-02   -0.22847092E+00
    0    1    1    5    3    0.86896409E-02   -0.52927811E+00   -0.11026356E+00
    1    0    0    1    1   -0.35825128E-01   -0.28376384E-01    0.26060260E-01
    1    0    0    2    2    0.11688662E-01    0.30044770E-01   -0.28992893E-01
    1    0    0    3    3   -0.16991659E+00   -0.24156880E+00   -0.25398614E-01
    1    0    0    4    3   -0.36599167E+00    0.18205001E-01    0.16399874E+00
    1    0    0    5    3    0.23011022E-01    0.34607699E+00    0.19712547E+00
    1    0    1    1    1    0.56976787E-01    0.84204778E-02    0.44769885E-01
    1    0    1    2    2   -0.18579622E-01    0.39148708E-01    0.33594859E-01
    1    0    1    3    3    0.15897451E+00    0.21129076E+00   -0.10020943E-01
    1    0    1    4    3    0.49391389E+00    0.98391377E-02   -0.21494738E+00
    1    0    1    5    3   -0.18144372E-01   -0.47080985E+00   -0.14026165E+00
    1    1    0    1    1    0.30520834E-01   -0.16131478E-01   -0.14787174E-01
    1    1    0    2    2   -0.34535129E-02    0.68110461E-02    0.46010912E-02
    1    1    0    3    3    0.20622839E+00    0.24343478E+00   -0.19580185E-01
    1    1    0    4    3    0.36837679E+00   -0.18945404E-01   -0.28279510E+00
    1    1    0    5    3    0.23532814E-02   -0.42748675E+00   -0.15548070E+00
    1    1    1    1    1   -0.66727216E-01   -0.26980183E-02    0.24398299E-01
    1    1    1    2    2    0.18824003E-01    0.38424868E-01   -0.31147811E-02
    1    1    1    3    3   -0.20876981E+00   -0.21917798E+00   -0.69085932E-02
    1    1    1    4    3   -0.53267066E+00    0.21076665E-01    0.22217885E+00
    1    1    1    5    3    0.43993316E-02    0.55488855E+00    0.16660221E+00
