    2    2    2
    5    3
Sr        Ti        O         
   -0.30000000E-01   -0.30000000E-01    0.13269918E-01    0.84868214E-04    0.66105909E-03    0.00000000E+00
    0    0    0    1    1    0.37751932E-01    0.58433229E-01   -0.43242923E-01
    0    0    0    2    2    0.75259134E-02    0.43434679E-02    0.12767226E-01
    0    0    0    3    3    0.25504292E+00    0.30461170E+00   -0.41477521E-04
    0    0    0    4    3    0.26827497E+00   -0.98016136E-02   -0.34287585E+00
    0    0    0    5    3   -0.21713726E-01   -0.26291910E+00   -0.25628250E+00
    0    0    1    1    1   -0.15976970E-02   -0.61790438E-02    0.40423075E-02
    0    0    1    2    2   -0.15626385E-01   -0.34439879E-02    0.87368698E-02
    0    0    1    3    3   -0.22831367E+00   -0.29448964E+00   -0.19643409E-02
    0    0    1    4    3   -0.40579725E+00    0.16893882E-01    0.30512541E+00
    0    0    1    5    3   -0.48891020E-02    0.34899884E+00    0.29487436E+00
    0    1    0    1    1   -0.23689525E-01    0.34727933E-01   -0.19672585E-01
    0    1    0    2    2   -0.20046464E-01   -0.84111935E-02   -0.43326518E-01
    0    1    0    3    3   -0.24139663E+00   -0.23325895E+00    0.61357384E-02
    0    1    0    4    3   -0.22788681E+00    0.31893039E-02    0.32582128E+00
    0    1    0    5    3   -0.22379619E-01    0.19125946E+00    0.30118727E+00
    0    1    1    1    1    0.27396008E-02   -0.21946093E-01    0.35213355E-01
    0    1    1    2    2    0.18337931E-01    0.17697334E-02   -0.42216308E-01
    0    1    1    3    3    0.22526082E+00    0.30648776E+00    0.31470152E-01
    0    1    1    4    3    0.38676209E+00   -0.31082062E-01   -0.30498760E+00
    0    1    1    5    3    0.90071296E-02   -0.37033270E+00   -0.20062957E+00
    1    0    0    1    1   -0.16527653E-01    0.87423754E-02    0.24586389E-02
    1    0    0    2    2    0.10112525E-01    0.26251807E-01   -0.30733957E-01
    1    0    0    3    3   -0.24446640E+00   -0.25263296E+00   -0.13137384E-01
    1    0    0    4    3   -0.22458634E+00   -0.31463317E-02    0.29009791E+00
    1    0    0    5    3   -0.48657613E-03    0.17413929E+00    0.29268600E+00
    1    0    1    1    1    0.27925739E-01   -0.31315345E-01    0.23608780E-01
    1    0    1    2    2   -0.16884070E-01    0.66901300E-02   -0.97284878E-02
    1    0    1    3    3    0.27391096E+00    0.25241186E+00   -0.97488535E-02
    1    0    1    4    3    0.41364774E+00    0.16413701E-01   -0.27975071E+00
    1    0    1    5    3   -0.36897164E-02   -0.43231014E+00   -0.29992864E+00
    1    1    0    1    1    0.19969296E-01    0.31530055E-01   -0.51954381E-01
    1    1    0    2    2   -0.17357063E-01    0.49709710E-02   -0.77096930E-02
    1    1    0    3    3    0.21075772E+00    0.24919173E+00   -0.99205504E-02
    1    1    0    4    3    0.19238466E+00    0.13715943E-01   -0.31845094E+00
    1    1    0    5    3   -0.63663095E-02   -0.26325407E+00   -0.18355125E+00
    1    1    1    1    1   -0.26528229E-01   -0.22714305E-01    0.17331926E-01
    1    1    1    2    2    0.32160891E-01    0.25146788E-01    0.10948627E-01
    1    1    1    3    3   -0.22169698E+00   -0.25592655E+00   -0.69718911E-02
    1    1    1    4    3   -0.39866642E+00    0.17012924E-01    0.27811208E+00
    1    1    1    5    3   -0.98019553E-03    0.40623119E+00    0.23620848E+00
